 Entering Gaussian System, Link 0=g09
 Initial command:
 /ihome/crc/build/g09/g09-D.01/TAR/g09/l1.exe "/scratch/slurm-4550282/Gau-8830.inp" -scrdir="/scratch/slurm-4550282/"
 Entering Link 1 = /ihome/crc/build/g09/g09-D.01/TAR/g09/l1.exe PID=      8831.
  
 Copyright (c) 1988,1990,1992,1993,1995,1998,2003,2009,2013,
            Gaussian, Inc.  All Rights Reserved.
  
 This is part of the Gaussian(R) 09 program.  It is based on
 the Gaussian(R) 03 system (copyright 2003, Gaussian, Inc.),
 the Gaussian(R) 98 system (copyright 1998, Gaussian, Inc.),
 the Gaussian(R) 94 system (copyright 1995, Gaussian, Inc.),
 the Gaussian 92(TM) system (copyright 1992, Gaussian, Inc.),
 the Gaussian 90(TM) system (copyright 1990, Gaussian, Inc.),
 the Gaussian 88(TM) system (copyright 1988, Gaussian, Inc.),
 the Gaussian 86(TM) system (copyright 1986, Carnegie Mellon
 University), and the Gaussian 82(TM) system (copyright 1983,
 Carnegie Mellon University). Gaussian is a federally registered
 trademark of Gaussian, Inc.
  
 This software contains proprietary and confidential information,
 including trade secrets, belonging to Gaussian, Inc.
  
 This software is provided under written license and may be
 used, copied, transmitted, or stored only in accord with that
 written license.
  
 The following legend is applicable only to US Government
 contracts under FAR:
  
                    RESTRICTED RIGHTS LEGEND
  
 Use, reproduction and disclosure by the US Government is
 subject to restrictions as set forth in subparagraphs (a)
 and (c) of the Commercial Computer Software - Restricted
 Rights clause in FAR 52.227-19.
  
 Gaussian, Inc.
 340 Quinnipiac St., Bldg. 40, Wallingford CT 06492
  
  
 ---------------------------------------------------------------
 Warning -- This program may not be used in any manner that
 competes with the business of Gaussian, Inc. or will provide
 assistance to any competitor of Gaussian, Inc.  The licensee
 of this program is prohibited from giving any competitor of
 Gaussian, Inc. access to this program.  By using this program,
 the user acknowledges that Gaussian, Inc. is engaged in the
 business of creating and licensing software in the field of
 computational chemistry and represents and warrants to the
 licensee that it is not a competitor of Gaussian, Inc. and that
 it will not use this program in any manner prohibited above.
 ---------------------------------------------------------------
  

 Cite this work as:
 Gaussian 09, Revision D.01,
 M. J. Frisch, G. W. Trucks, H. B. Schlegel, G. E. Scuseria, 
 M. A. Robb, J. R. Cheeseman, G. Scalmani, V. Barone, B. Mennucci, 
 G. A. Petersson, H. Nakatsuji, M. Caricato, X. Li, H. P. Hratchian, 
 A. F. Izmaylov, J. Bloino, G. Zheng, J. L. Sonnenberg, M. Hada, 
 M. Ehara, K. Toyota, R. Fukuda, J. Hasegawa, M. Ishida, T. Nakajima, 
 Y. Honda, O. Kitao, H. Nakai, T. Vreven, J. A. Montgomery, Jr., 
 J. E. Peralta, F. Ogliaro, M. Bearpark, J. J. Heyd, E. Brothers, 
 K. N. Kudin, V. N. Staroverov, T. Keith, R. Kobayashi, J. Normand, 
 K. Raghavachari, A. Rendell, J. C. Burant, S. S. Iyengar, J. Tomasi, 
 M. Cossi, N. Rega, J. M. Millam, M. Klene, J. E. Knox, J. B. Cross, 
 V. Bakken, C. Adamo, J. Jaramillo, R. Gomperts, R. E. Stratmann, 
 O. Yazyev, A. J. Austin, R. Cammi, C. Pomelli, J. W. Ochterski, 
 R. L. Martin, K. Morokuma, V. G. Zakrzewski, G. A. Voth, 
 P. Salvador, J. J. Dannenberg, S. Dapprich, A. D. Daniels, 
 O. Farkas, J. B. Foresman, J. V. Ortiz, J. Cioslowski, 
 and D. J. Fox, Gaussian, Inc., Wallingford CT, 2013.
 
 ******************************************
 Gaussian 09:  EM64L-G09RevD.01 24-Apr-2013
                14-Aug-2020 
 ******************************************
 %Nproc=4
 Will use up to    4 processors via shared memory.
 %mem=10GB
 ----------------------------------------------------------------------
 #m062x/6-311g(d,p) charge pop = nbo opt=maxcycle=640 freq nosymm scf=(
 maxcycle=999) gfinput iop(6/7=3)
 ----------------------------------------------------------------------
 1/6=640,10=7,14=-1,18=10,26=3,28=-2,38=1,125=101/1,3;
 2/12=2,15=1,17=6,18=5,29=2,40=1/2;
 3/5=4,6=6,7=101,11=2,16=1,24=10,25=1,30=1,71=1,74=-55/1,2,3;
 4//1;
 5/5=2,7=999,38=5/2;
 6/7=3,8=2,9=2,10=2,28=1,40=1/1,7;
 7/7=1,16=-2,29=1,30=1/1,2,3,16;
 1/6=640,10=7,14=-1,18=10,26=3,28=-2/3(2);
 2/15=1,29=1/2;
 99/12=1/99;
 2/15=1,29=1/2;
 3/5=4,6=6,7=101,11=2,16=1,25=1,30=1,71=1,74=-55/1,2,3;
 4/5=5,16=3,69=1/1;
 5/5=2,7=999,38=5/2;
 7/7=1,16=-2,30=1/1,2,3,16;
 1/6=640,14=-1,18=10,26=3,28=-2/3(-5);
 2/15=1,29=1/2;
 6/7=3,8=2,9=2,10=2,19=2,28=1,40=1/1,7;
 99/9=1,12=1/99;
 -----------------
 O=C1Oc2ccccc2C=C1
 -----------------
 Symbolic Z-matrix:
 Charge =  0 Multiplicity = 1
 O                     0.99463   0.11258   0.04049 
 C                     2.18629  -0.0362   -0.02242 
 O                     2.96635   1.09111  -0.06806 
 C                     4.32876   1.0448   -0.14088 
 C                     5.00574   2.25864  -0.17999 
 C                     6.38947   2.24925  -0.25207 
 C                     7.09607   1.0421   -0.28525 
 C                     6.41101  -0.15849  -0.24676 
 C                     5.01104  -0.17388  -0.17336 
 C                     4.22231  -1.38257  -0.12949 
 C                     2.88233  -1.31885  -0.05739 
 H                     4.43856   3.18013  -0.15351 
 H                     6.92584   3.18941  -0.28292 
 H                     8.17676   1.0496   -0.34146 
 H                     6.94377  -1.10201  -0.27266 
 H                     4.73275  -2.33906  -0.15612 
 H                     2.25313  -2.19705  -0.02383 
 
 Background charge distribution read from input stream:

 GradGradGradGradGradGradGradGradGradGradGradGradGradGradGradGradGradGrad
 Berny optimization.
 Initialization pass.
 No Z-matrix variables, so optimization will use Cartesian coordinates.
 Trust Radius=3.00D-01 FncErr=1.00D-07 GrdErr=1.00D-06
 Number of steps in this run=    102 maximum allowed number of steps=    102.
 GradGradGradGradGradGradGradGradGradGradGradGradGradGradGradGradGradGrad

 ---------------------------------------------------------------------------------------------------
                            Z-MATRIX (ANGSTROMS AND DEGREES)
   CD    Cent   Atom    N1       Length/X        N2       Alpha/Y        N3        Beta/Z          J
 ---------------------------------------------------------------------------------------------------
      1      1  O        0   0.994629          0.112579          0.040491
      2      2  C        0   2.186287         -0.036202         -0.022417
      3      3  O        0   2.966347          1.091107         -0.068061
      4      4  C        0   4.328757          1.044801         -0.140882
      5      5  C        0   5.005744          2.258636         -0.179986
      6      6  C        0   6.389465          2.249249         -0.252074
      7      7  C        0   7.096074          1.042101         -0.285250
      8      8  C        0   6.411012         -0.158493         -0.246758
      9      9  C        0   5.011040         -0.173878         -0.173362
     10     10  C        0   4.222310         -1.382573         -0.129486
     11     11  C        0   2.882333         -1.318852         -0.057388
     12     12  H        0   4.438559          3.180130         -0.153510
     13     13  H        0   6.925843          3.189412         -0.282923
     14     14  H        0   8.176761          1.049603         -0.341463
     15     15  H        0   6.943766         -1.102013         -0.272659
     16     16  H        0   4.732750         -2.339061         -0.156115
     17     17  H        0   2.253131         -2.197045         -0.023825
 ---------------------------------------------------------------------------------------------------
                         Z-Matrix orientation:                         
 ---------------------------------------------------------------------
 Center     Atomic      Atomic             Coordinates (Angstroms)
 Number     Number       Type             X           Y           Z
 ---------------------------------------------------------------------
      1          8           0        0.994629    0.112579    0.040491
      2          6           0        2.186287   -0.036202   -0.022417
      3          8           0        2.966347    1.091107   -0.068061
      4          6           0        4.328757    1.044801   -0.140882
      5          6           0        5.005744    2.258636   -0.179986
      6          6           0        6.389465    2.249249   -0.252074
      7          6           0        7.096074    1.042101   -0.285250
      8          6           0        6.411012   -0.158493   -0.246758
      9          6           0        5.011040   -0.173878   -0.173362
     10          6           0        4.222310   -1.382573   -0.129486
     11          6           0        2.882333   -1.318852   -0.057388
     12          1           0        4.438559    3.180130   -0.153510
     13          1           0        6.925843    3.189412   -0.282923
     14          1           0        8.176761    1.049603   -0.341463
     15          1           0        6.943766   -1.102013   -0.272659
     16          1           0        4.732750   -2.339061   -0.156115
     17          1           0        2.253131   -2.197045   -0.023825
 ---------------------------------------------------------------------
                    Distance matrix (angstroms):
                    1          2          3          4          5
     1  O    0.000000
     2  C    1.202556   0.000000
     3  O    2.203854   1.371642   0.000000
     4  C    3.466748   2.402661   1.365140   0.000000
     5  C    4.554472   3.638743   2.352614   1.390409   0.000000
     6  C    5.809923   4.789857   3.618410   2.389472   1.385629
     7  C    6.180433   5.033669   4.135725   2.771082   2.420851
     8  C    5.430764   4.232444   3.668671   2.407262   2.796739
     9  C    4.032288   2.832131   2.406667   1.397048   2.432529
    10  C    3.561221   2.443270   2.774943   2.429734   3.724879
    11  C    2.371076   1.459758   2.411447   2.772358   4.162010
    12  H    4.616076   3.928703   2.557093   2.138188   1.082382
    13  H    6.689604   5.738976   4.486274   3.371111   2.136287
    14  H    7.253063   6.096437   5.217747   3.853231   3.397526
    15  H    6.079928   4.881821   4.546592   3.385919   3.880526
    16  H    4.474678   3.435915   3.859273   3.407927   4.605856
    17  H    2.631032   2.161877   3.364904   3.851168   5.239691
                    6          7          8          9         10
     6  C    0.000000
     7  C    1.399144   0.000000
     8  C    2.407844   1.382830   0.000000
     9  C    2.788870   2.416297   1.401979   0.000000
    10  C    4.231042   3.763220   2.510486   1.443940   0.000000
    11  C    5.006917   4.835456   3.719391   2.419878   1.343427
    12  H    2.163860   3.413343   3.878875   3.402572   4.567888
    13  H    1.082848   2.154049   3.387451   3.871717   5.313726
    14  H    2.154430   1.082174   2.141573   3.398081   4.647375
    15  H    3.396856   2.149554   1.083849   2.146328   2.739623
    16  H    4.879191   4.127255   2.753118   2.183062   1.084494
    17  H    6.077079   5.832196   4.636094   3.423686   2.133587
                   11         12         13         14         15
    11  C    0.000000
    12  H    4.761504   0.000000
    13  H    6.060139   2.490666   0.000000
    14  H    5.807000   4.306812   2.479315   0.000000
    15  H    4.072910   4.962561   4.291475   2.480819   0.000000
    16  H    2.115329   5.527027   5.948929   4.835143   2.536230
    17  H    1.080854   5.805767   7.135495   6.762471   4.823181
                   16         17
    16  H    0.000000
    17  H    2.487203   0.000000
 Symmetry turned off by external request.
 Stoichiometry    C9H6O2
 Framework group  C1[X(C9H6O2)]
 Deg. of freedom    45
 Full point group                 C1      NOp   1
 Rotational constants (GHZ):      2.8466617      0.8908908      0.6785365
 Standard basis: 6-311G(d,p) (5D, 7F)
 AO basis set in the form of general basis input (Overlap normalization):
      1 0
 S   6 1.00       0.000000000000
      0.8588500000D+04  0.1895150083D-02
      0.1297230000D+04  0.1438590063D-01
      0.2992960000D+03  0.7073200310D-01
      0.8737710000D+02  0.2400010105D+00
      0.2567890000D+02  0.5947970261D+00
      0.3740040000D+01  0.2808020123D+00
 SP   3 1.00       0.000000000000
      0.4211750000D+02  0.1138890124D+00  0.3651139738D-01
      0.9628370000D+01  0.9208111006D+00  0.2371529830D+00
      0.2853320000D+01 -0.3274470358D-02  0.8197019412D+00
 SP   1 1.00       0.000000000000
      0.9056610000D+00  0.1000000000D+01  0.1000000000D+01
 SP   1 1.00       0.000000000000
      0.2556110000D+00  0.1000000000D+01  0.1000000000D+01
 D   1 1.00       0.000000000000
      0.1292000000D+01  0.1000000000D+01
 ****
      2 0
 S   6 1.00       0.000000000000
      0.4563240000D+04  0.1966650249D-02
      0.6820240000D+03  0.1523060193D-01
      0.1549730000D+03  0.7612690966D-01
      0.4445530000D+02  0.2608010331D+00
      0.1302900000D+02  0.6164620782D+00
      0.1827730000D+01  0.2210060280D+00
 SP   3 1.00       0.000000000000
      0.2096420000D+02  0.1146600807D+00  0.4024869267D-01
      0.4803310000D+01  0.9199996477D+00  0.2375939567D+00
      0.1459330000D+01 -0.3030682134D-02  0.8158538515D+00
 SP   1 1.00       0.000000000000
      0.4834560000D+00  0.1000000000D+01  0.1000000000D+01
 SP   1 1.00       0.000000000000
      0.1455850000D+00  0.1000000000D+01  0.1000000000D+01
 D   1 1.00       0.000000000000
      0.6260000000D+00  0.1000000000D+01
 ****
      3 0
 S   6 1.00       0.000000000000
      0.8588500000D+04  0.1895150083D-02
      0.1297230000D+04  0.1438590063D-01
      0.2992960000D+03  0.7073200310D-01
      0.8737710000D+02  0.2400010105D+00
      0.2567890000D+02  0.5947970261D+00
      0.3740040000D+01  0.2808020123D+00
 SP   3 1.00       0.000000000000
      0.4211750000D+02  0.1138890124D+00  0.3651139738D-01
      0.9628370000D+01  0.9208111006D+00  0.2371529830D+00
      0.2853320000D+01 -0.3274470358D-02  0.8197019412D+00
 SP   1 1.00       0.000000000000
      0.9056610000D+00  0.1000000000D+01  0.1000000000D+01
 SP   1 1.00       0.000000000000
      0.2556110000D+00  0.1000000000D+01  0.1000000000D+01
 D   1 1.00       0.000000000000
      0.1292000000D+01  0.1000000000D+01
 ****
      4 0
 S   6 1.00       0.000000000000
      0.4563240000D+04  0.1966650249D-02
      0.6820240000D+03  0.1523060193D-01
      0.1549730000D+03  0.7612690966D-01
      0.4445530000D+02  0.2608010331D+00
      0.1302900000D+02  0.6164620782D+00
      0.1827730000D+01  0.2210060280D+00
 SP   3 1.00       0.000000000000
      0.2096420000D+02  0.1146600807D+00  0.4024869267D-01
      0.4803310000D+01  0.9199996477D+00  0.2375939567D+00
      0.1459330000D+01 -0.3030682134D-02  0.8158538515D+00
 SP   1 1.00       0.000000000000
      0.4834560000D+00  0.1000000000D+01  0.1000000000D+01
 SP   1 1.00       0.000000000000
      0.1455850000D+00  0.1000000000D+01  0.1000000000D+01
 D   1 1.00       0.000000000000
      0.6260000000D+00  0.1000000000D+01
 ****
      5 0
 S   6 1.00       0.000000000000
      0.4563240000D+04  0.1966650249D-02
      0.6820240000D+03  0.1523060193D-01
      0.1549730000D+03  0.7612690966D-01
      0.4445530000D+02  0.2608010331D+00
      0.1302900000D+02  0.6164620782D+00
      0.1827730000D+01  0.2210060280D+00
 SP   3 1.00       0.000000000000
      0.2096420000D+02  0.1146600807D+00  0.4024869267D-01
      0.4803310000D+01  0.9199996477D+00  0.2375939567D+00
      0.1459330000D+01 -0.3030682134D-02  0.8158538515D+00
 SP   1 1.00       0.000000000000
      0.4834560000D+00  0.1000000000D+01  0.1000000000D+01
 SP   1 1.00       0.000000000000
      0.1455850000D+00  0.1000000000D+01  0.1000000000D+01
 D   1 1.00       0.000000000000
      0.6260000000D+00  0.1000000000D+01
 ****
      6 0
 S   6 1.00       0.000000000000
      0.4563240000D+04  0.1966650249D-02
      0.6820240000D+03  0.1523060193D-01
      0.1549730000D+03  0.7612690966D-01
      0.4445530000D+02  0.2608010331D+00
      0.1302900000D+02  0.6164620782D+00
      0.1827730000D+01  0.2210060280D+00
 SP   3 1.00       0.000000000000
      0.2096420000D+02  0.1146600807D+00  0.4024869267D-01
      0.4803310000D+01  0.9199996477D+00  0.2375939567D+00
      0.1459330000D+01 -0.3030682134D-02  0.8158538515D+00
 SP   1 1.00       0.000000000000
      0.4834560000D+00  0.1000000000D+01  0.1000000000D+01
 SP   1 1.00       0.000000000000
      0.1455850000D+00  0.1000000000D+01  0.1000000000D+01
 D   1 1.00       0.000000000000
      0.6260000000D+00  0.1000000000D+01
 ****
      7 0
 S   6 1.00       0.000000000000
      0.4563240000D+04  0.1966650249D-02
      0.6820240000D+03  0.1523060193D-01
      0.1549730000D+03  0.7612690966D-01
      0.4445530000D+02  0.2608010331D+00
      0.1302900000D+02  0.6164620782D+00
      0.1827730000D+01  0.2210060280D+00
 SP   3 1.00       0.000000000000
      0.2096420000D+02  0.1146600807D+00  0.4024869267D-01
      0.4803310000D+01  0.9199996477D+00  0.2375939567D+00
      0.1459330000D+01 -0.3030682134D-02  0.8158538515D+00
 SP   1 1.00       0.000000000000
      0.4834560000D+00  0.1000000000D+01  0.1000000000D+01
 SP   1 1.00       0.000000000000
      0.1455850000D+00  0.1000000000D+01  0.1000000000D+01
 D   1 1.00       0.000000000000
      0.6260000000D+00  0.1000000000D+01
 ****
      8 0
 S   6 1.00       0.000000000000
      0.4563240000D+04  0.1966650249D-02
      0.6820240000D+03  0.1523060193D-01
      0.1549730000D+03  0.7612690966D-01
      0.4445530000D+02  0.2608010331D+00
      0.1302900000D+02  0.6164620782D+00
      0.1827730000D+01  0.2210060280D+00
 SP   3 1.00       0.000000000000
      0.2096420000D+02  0.1146600807D+00  0.4024869267D-01
      0.4803310000D+01  0.9199996477D+00  0.2375939567D+00
      0.1459330000D+01 -0.3030682134D-02  0.8158538515D+00
 SP   1 1.00       0.000000000000
      0.4834560000D+00  0.1000000000D+01  0.1000000000D+01
 SP   1 1.00       0.000000000000
      0.1455850000D+00  0.1000000000D+01  0.1000000000D+01
 D   1 1.00       0.000000000000
      0.6260000000D+00  0.1000000000D+01
 ****
      9 0
 S   6 1.00       0.000000000000
      0.4563240000D+04  0.1966650249D-02
      0.6820240000D+03  0.1523060193D-01
      0.1549730000D+03  0.7612690966D-01
      0.4445530000D+02  0.2608010331D+00
      0.1302900000D+02  0.6164620782D+00
      0.1827730000D+01  0.2210060280D+00
 SP   3 1.00       0.000000000000
      0.2096420000D+02  0.1146600807D+00  0.4024869267D-01
      0.4803310000D+01  0.9199996477D+00  0.2375939567D+00
      0.1459330000D+01 -0.3030682134D-02  0.8158538515D+00
 SP   1 1.00       0.000000000000
      0.4834560000D+00  0.1000000000D+01  0.1000000000D+01
 SP   1 1.00       0.000000000000
      0.1455850000D+00  0.1000000000D+01  0.1000000000D+01
 D   1 1.00       0.000000000000
      0.6260000000D+00  0.1000000000D+01
 ****
     10 0
 S   6 1.00       0.000000000000
      0.4563240000D+04  0.1966650249D-02
      0.6820240000D+03  0.1523060193D-01
      0.1549730000D+03  0.7612690966D-01
      0.4445530000D+02  0.2608010331D+00
      0.1302900000D+02  0.6164620782D+00
      0.1827730000D+01  0.2210060280D+00
 SP   3 1.00       0.000000000000
      0.2096420000D+02  0.1146600807D+00  0.4024869267D-01
      0.4803310000D+01  0.9199996477D+00  0.2375939567D+00
      0.1459330000D+01 -0.3030682134D-02  0.8158538515D+00
 SP   1 1.00       0.000000000000
      0.4834560000D+00  0.1000000000D+01  0.1000000000D+01
 SP   1 1.00       0.000000000000
      0.1455850000D+00  0.1000000000D+01  0.1000000000D+01
 D   1 1.00       0.000000000000
      0.6260000000D+00  0.1000000000D+01
 ****
     11 0
 S   6 1.00       0.000000000000
      0.4563240000D+04  0.1966650249D-02
      0.6820240000D+03  0.1523060193D-01
      0.1549730000D+03  0.7612690966D-01
      0.4445530000D+02  0.2608010331D+00
      0.1302900000D+02  0.6164620782D+00
      0.1827730000D+01  0.2210060280D+00
 SP   3 1.00       0.000000000000
      0.2096420000D+02  0.1146600807D+00  0.4024869267D-01
      0.4803310000D+01  0.9199996477D+00  0.2375939567D+00
      0.1459330000D+01 -0.3030682134D-02  0.8158538515D+00
 SP   1 1.00       0.000000000000
      0.4834560000D+00  0.1000000000D+01  0.1000000000D+01
 SP   1 1.00       0.000000000000
      0.1455850000D+00  0.1000000000D+01  0.1000000000D+01
 D   1 1.00       0.000000000000
      0.6260000000D+00  0.1000000000D+01
 ****
     12 0
 S   3 1.00       0.000000000000
      0.3386500000D+02  0.2549381454D-01
      0.5094790000D+01  0.1903731086D+00
      0.1158790000D+01  0.8521614860D+00
 S   1 1.00       0.000000000000
      0.3258400000D+00  0.1000000000D+01
 S   1 1.00       0.000000000000
      0.1027410000D+00  0.1000000000D+01
 P   1 1.00       0.000000000000
      0.7500000000D+00  0.1000000000D+01
 ****
     13 0
 S   3 1.00       0.000000000000
      0.3386500000D+02  0.2549381454D-01
      0.5094790000D+01  0.1903731086D+00
      0.1158790000D+01  0.8521614860D+00
 S   1 1.00       0.000000000000
      0.3258400000D+00  0.1000000000D+01
 S   1 1.00       0.000000000000
      0.1027410000D+00  0.1000000000D+01
 P   1 1.00       0.000000000000
      0.7500000000D+00  0.1000000000D+01
 ****
     14 0
 S   3 1.00       0.000000000000
      0.3386500000D+02  0.2549381454D-01
      0.5094790000D+01  0.1903731086D+00
      0.1158790000D+01  0.8521614860D+00
 S   1 1.00       0.000000000000
      0.3258400000D+00  0.1000000000D+01
 S   1 1.00       0.000000000000
      0.1027410000D+00  0.1000000000D+01
 P   1 1.00       0.000000000000
      0.7500000000D+00  0.1000000000D+01
 ****
     15 0
 S   3 1.00       0.000000000000
      0.3386500000D+02  0.2549381454D-01
      0.5094790000D+01  0.1903731086D+00
      0.1158790000D+01  0.8521614860D+00
 S   1 1.00       0.000000000000
      0.3258400000D+00  0.1000000000D+01
 S   1 1.00       0.000000000000
      0.1027410000D+00  0.1000000000D+01
 P   1 1.00       0.000000000000
      0.7500000000D+00  0.1000000000D+01
 ****
     16 0
 S   3 1.00       0.000000000000
      0.3386500000D+02  0.2549381454D-01
      0.5094790000D+01  0.1903731086D+00
      0.1158790000D+01  0.8521614860D+00
 S   1 1.00       0.000000000000
      0.3258400000D+00  0.1000000000D+01
 S   1 1.00       0.000000000000
      0.1027410000D+00  0.1000000000D+01
 P   1 1.00       0.000000000000
      0.7500000000D+00  0.1000000000D+01
 ****
     17 0
 S   3 1.00       0.000000000000
      0.3386500000D+02  0.2549381454D-01
      0.5094790000D+01  0.1903731086D+00
      0.1158790000D+01  0.8521614860D+00
 S   1 1.00       0.000000000000
      0.3258400000D+00  0.1000000000D+01
 S   1 1.00       0.000000000000
      0.1027410000D+00  0.1000000000D+01
 P   1 1.00       0.000000000000
      0.7500000000D+00  0.1000000000D+01
 ****

   234 basis functions,   400 primitive gaussians,   245 cartesian basis functions
    38 alpha electrons       38 beta electrons
       nuclear repulsion energy       555.2326823620 Hartrees.
 NAtoms=   17 NActive=   17 NUniq=   17 SFac= 1.00D+00 NAtFMM=   60 NAOKFM=F Big=F
 Integral buffers will be    131072 words long.
 Raffenetti 2 integral format.
 Two-electron integral symmetry is turned off.
 One-electron integrals computed using PRISM.
 NBasis=   234 RedAO= T EigKep=  1.73D-04  NBF=   234
 NBsUse=   234 1.00D-06 EigRej= -1.00D+00 NBFU=   234
 ExpMin= 1.03D-01 ExpMax= 8.59D+03 ExpMxC= 1.30D+03 IAcc=1 IRadAn=         1 AccDes= 0.00D+00
 Harris functional with IExCor= 1009 and IRadAn=       1 diagonalized for initial guess.
 HarFok:  IExCor= 1009 AccDes= 0.00D+00 IRadAn=         1 IDoV= 1 UseB2=F ITyADJ=14
 ICtDFT=  3500011 ScaDFX=  1.000000  1.000000  1.000000  1.000000
 FoFCou: FMM=F IPFlag=           0 FMFlag=      100000 FMFlg1=           0
         NFxFlg=           0 DoJE=T BraDBF=F KetDBF=T FulRan=T
         wScrn=  0.000000 ICntrl=     500 IOpCl=  0 I1Cent=   200000004 NGrid=           0
         NMat0=    1 NMatS0=      1 NMatT0=    0 NMatD0=    1 NMtDS0=    0 NMtDT0=    0
 Symmetry not used in FoFCou.
 Keep R1 ints in memory in canonical form, NReq=386632176.
 Requested convergence on RMS density matrix=1.00D-08 within 999 cycles.
 Requested convergence on MAX density matrix=1.00D-06.
 Requested convergence on             energy=1.00D-06.
 No special actions if energy rises.
 Integral accuracy reduced to 1.0D-05 until final iterations.
 Initial convergence to 1.0D-05 achieved.  Increase integral accuracy.
 SCF Done:  E(RM062X) =  -496.947044264     A.U. after   16 cycles
            NFock= 16  Conv=0.59D-08     -V/T= 2.0034

 **********************************************************************

            Population analysis using the SCF density.

 **********************************************************************

 Alpha  occ. eigenvalues --  -19.69142 -19.60354 -10.68038 -10.63289 -10.58785
 Alpha  occ. eigenvalues --  -10.57627 -10.57023 -10.56966 -10.56785 -10.56222
 Alpha  occ. eigenvalues --  -10.56035  -1.25438  -1.15524  -0.99256  -0.93956
 Alpha  occ. eigenvalues --   -0.87322  -0.86205  -0.75521  -0.74829  -0.72258
 Alpha  occ. eigenvalues --   -0.65105  -0.62134  -0.58532  -0.56681  -0.55692
 Alpha  occ. eigenvalues --   -0.54069  -0.52585  -0.51853  -0.50046  -0.47159
 Alpha  occ. eigenvalues --   -0.46437  -0.44398  -0.42809  -0.41756  -0.39010
 Alpha  occ. eigenvalues --   -0.35623  -0.31901  -0.29619
 Alpha virt. eigenvalues --   -0.04298   0.01116   0.02987   0.06836   0.08061
 Alpha virt. eigenvalues --    0.10483   0.12209   0.12727   0.13711   0.15844
 Alpha virt. eigenvalues --    0.19383   0.21261   0.23372   0.27630   0.27985
 Alpha virt. eigenvalues --    0.29573   0.30344   0.31233   0.33009   0.37063
 Alpha virt. eigenvalues --    0.38222   0.38514   0.40120   0.41403   0.42543
 Alpha virt. eigenvalues --    0.43367   0.45303   0.45388   0.46372   0.47330
 Alpha virt. eigenvalues --    0.48804   0.49579   0.49612   0.49820   0.51979
 Alpha virt. eigenvalues --    0.53944   0.56372   0.56721   0.57344   0.60274
 Alpha virt. eigenvalues --    0.62146   0.63062   0.63596   0.64919   0.66322
 Alpha virt. eigenvalues --    0.67100   0.67506   0.67913   0.69705   0.74377
 Alpha virt. eigenvalues --    0.75081   0.78126   0.79193   0.81216   0.81987
 Alpha virt. eigenvalues --    0.84386   0.85608   0.87823   0.91390   0.92660
 Alpha virt. eigenvalues --    0.94826   0.95139   0.98295   1.00184   1.00300
 Alpha virt. eigenvalues --    1.02709   1.02750   1.06340   1.08905   1.09676
 Alpha virt. eigenvalues --    1.10413   1.12351   1.12386   1.16789   1.19249
 Alpha virt. eigenvalues --    1.21406   1.26856   1.28298   1.31367   1.35022
 Alpha virt. eigenvalues --    1.40270   1.40301   1.46177   1.47684   1.50030
 Alpha virt. eigenvalues --    1.50976   1.52386   1.56142   1.57802   1.59240
 Alpha virt. eigenvalues --    1.59604   1.62323   1.62662   1.62975   1.64666
 Alpha virt. eigenvalues --    1.65792   1.72741   1.74787   1.75041   1.76103
 Alpha virt. eigenvalues --    1.77487   1.77878   1.80773   1.83365   1.87183
 Alpha virt. eigenvalues --    1.89711   1.91039   1.92842   1.92993   1.93855
 Alpha virt. eigenvalues --    1.94421   1.96613   1.99075   2.00915   2.02766
 Alpha virt. eigenvalues --    2.06456   2.11920   2.12687   2.15686   2.17262
 Alpha virt. eigenvalues --    2.26809   2.28470   2.31150   2.34266   2.36369
 Alpha virt. eigenvalues --    2.39596   2.43397   2.51771   2.55222   2.56217
 Alpha virt. eigenvalues --    2.59558   2.61219   2.61232   2.62499   2.63479
 Alpha virt. eigenvalues --    2.64830   2.66150   2.67614   2.69422   2.71113
 Alpha virt. eigenvalues --    2.73363   2.78565   2.80105   2.82144   2.85152
 Alpha virt. eigenvalues --    2.89829   2.91702   2.92705   2.97070   2.99037
 Alpha virt. eigenvalues --    2.99964   3.01398   3.09555   3.11081   3.13877
 Alpha virt. eigenvalues --    3.19106   3.22210   3.27753   3.30778   3.37420
 Alpha virt. eigenvalues --    3.40782   3.41767   3.49833   3.51091   3.52155
 Alpha virt. eigenvalues --    3.56662   3.58877   3.63571   3.68848   3.74885
 Alpha virt. eigenvalues --    4.00724   4.02908   4.03678   4.05926   4.13942
 Alpha virt. eigenvalues --    4.20133   4.24515   4.52006   4.83937   4.96699
 Alpha virt. eigenvalues --    5.02450   5.14109   5.36389   5.71350   5.98349
 Alpha virt. eigenvalues --   23.54031  23.80043  23.92165  23.96894  23.99895
 Alpha virt. eigenvalues --   24.11143  24.16448  24.24659  24.27310  49.97371
 Alpha virt. eigenvalues --   50.12539
     Molecular Orbital Coefficients:
                           1         2         3         4         5
                           O         O         O         O         O
     Eigenvalues --   -19.69142 -19.60354 -10.68038 -10.63289 -10.58785
   1 1   O  1S         -0.00007   0.55287  -0.00013   0.00000   0.00000
   2        2S         -0.00003   0.46950  -0.00016   0.00001   0.00002
   3        2PX         0.00001   0.00142   0.00058  -0.00001   0.00002
   4        2PY        -0.00001  -0.00016  -0.00009   0.00001  -0.00003
   5        2PZ         0.00000  -0.00008  -0.00003   0.00000   0.00000
   6        3S         -0.00019   0.00899   0.00069  -0.00008  -0.00013
   7        3PX        -0.00010   0.00025  -0.00125   0.00002  -0.00013
   8        3PY         0.00001  -0.00005   0.00019  -0.00004   0.00011
   9        3PZ         0.00000  -0.00001   0.00007   0.00000   0.00001
  10        4S          0.00052  -0.00610  -0.00530   0.00038   0.00004
  11        4PX         0.00006  -0.00111  -0.00204   0.00004   0.00003
  12        4PY        -0.00030   0.00029  -0.00023   0.00048  -0.00021
  13        4PZ         0.00000   0.00006   0.00011   0.00000   0.00000
  14        5D 0        0.00000  -0.00014   0.00043   0.00001   0.00002
  15        5D+1        0.00000  -0.00002   0.00007   0.00000   0.00000
  16        5D-1        0.00000   0.00000  -0.00001   0.00000   0.00000
  17        5D+2       -0.00004   0.00017  -0.00064   0.00000  -0.00004
  18        5D-2       -0.00003  -0.00004   0.00011   0.00004   0.00004
  19 2   C  1S          0.00001  -0.00001   0.56416   0.00010  -0.00002
  20        2S         -0.00005   0.00001   0.46387   0.00011   0.00004
  21        2PX         0.00003  -0.00028   0.00059  -0.00004   0.00007
  22        2PY         0.00014   0.00003   0.00090  -0.00002  -0.00015
  23        2PZ         0.00000   0.00001  -0.00003   0.00000   0.00000
  24        3S          0.00033   0.00054   0.01194  -0.00035  -0.00025
  25        3PX         0.00020   0.00065  -0.00138   0.00004  -0.00044
  26        3PY        -0.00007  -0.00012  -0.00046   0.00000   0.00078
  27        3PZ        -0.00001  -0.00003   0.00007   0.00000   0.00002
  28        4S          0.00096   0.00116  -0.00257   0.00154  -0.00181
  29        4PX         0.00134  -0.00460  -0.00362   0.00051  -0.00045
  30        4PY         0.00129  -0.00044   0.00329  -0.00298   0.00071
  31        4PZ        -0.00008   0.00025   0.00019  -0.00002   0.00002
  32        5D 0       -0.00004   0.00017  -0.00110  -0.00004   0.00004
  33        5D+1       -0.00001   0.00004  -0.00014  -0.00001  -0.00001
  34        5D-1        0.00001  -0.00001   0.00003   0.00000  -0.00002
  35        5D+2        0.00015  -0.00054   0.00075   0.00012   0.00023
  36        5D-2       -0.00016   0.00011  -0.00054   0.00009   0.00039
  37 3   O  1S          0.55289   0.00007  -0.00005  -0.00006   0.00000
  38        2S          0.46948   0.00008  -0.00012  -0.00015   0.00001
  39        2PX         0.00076  -0.00005  -0.00007   0.00019   0.00000
  40        2PY        -0.00119  -0.00004  -0.00017  -0.00005  -0.00003
  41        2PZ        -0.00004   0.00000   0.00000  -0.00001   0.00000
  42        3S          0.00905  -0.00017   0.00079   0.00103   0.00000
  43        3PX        -0.00014   0.00018  -0.00027   0.00035  -0.00002
  44        3PY         0.00020   0.00017  -0.00019   0.00016   0.00014
  45        3PZ         0.00001  -0.00001   0.00002  -0.00002   0.00000
  46        4S         -0.00701   0.00052  -0.00204  -0.00352  -0.00049
  47        4PX        -0.00064  -0.00008   0.00148  -0.00283   0.00004
  48        4PY         0.00069  -0.00048   0.00174  -0.00072   0.00004
  49        4PZ         0.00003   0.00001  -0.00009   0.00016   0.00000
  50        5D 0       -0.00005   0.00000   0.00020   0.00020   0.00004
  51        5D+1       -0.00001   0.00000   0.00001   0.00003   0.00000
  52        5D-1        0.00000   0.00000   0.00001   0.00000   0.00000
  53        5D+2        0.00003  -0.00002   0.00011  -0.00023   0.00000
  54        5D-2        0.00005  -0.00008  -0.00018   0.00000  -0.00004
  55 4   C  1S          0.00001   0.00000  -0.00010   0.56410  -0.00006
  56        2S         -0.00007   0.00001  -0.00005   0.46376  -0.00001
  57        2PX        -0.00015  -0.00005  -0.00003  -0.00138   0.00001
  58        2PY         0.00003  -0.00002  -0.00004  -0.00009  -0.00012
  59        2PZ         0.00001   0.00000   0.00000   0.00007   0.00000
  60        3S          0.00060  -0.00011  -0.00039   0.01267  -0.00014
  61        3PX         0.00005   0.00027   0.00031   0.00193  -0.00007
  62        3PY        -0.00006   0.00013   0.00030   0.00013   0.00072
  63        3PZ         0.00000  -0.00002  -0.00002  -0.00010   0.00000
  64        4S         -0.00168  -0.00065   0.00080  -0.01226  -0.00373
  65        4PX        -0.00471  -0.00173  -0.00184  -0.00975  -0.00131
  66        4PY        -0.00011  -0.00166  -0.00872   0.00295   0.00051
  67        4PZ         0.00025   0.00010   0.00012   0.00051   0.00006
  68        5D 0       -0.00001  -0.00003  -0.00008  -0.00115   0.00002
  69        5D+1        0.00001   0.00000  -0.00001  -0.00007  -0.00001
  70        5D-1       -0.00001   0.00000  -0.00001  -0.00001  -0.00001
  71        5D+2       -0.00016  -0.00004   0.00002  -0.00062   0.00020
  72        5D-2        0.00012  -0.00003   0.00009  -0.00003   0.00024
  73 5   C  1S          0.00000   0.00000  -0.00001   0.00307  -0.00003
  74        2S          0.00002   0.00001   0.00002   0.00265   0.00001
  75        2PX        -0.00002  -0.00001   0.00002  -0.00039  -0.00001
  76        2PY         0.00003   0.00001   0.00002  -0.00059  -0.00001
  77        2PZ         0.00000   0.00000   0.00000   0.00002   0.00000
  78        3S         -0.00013  -0.00009  -0.00029  -0.00021  -0.00026
  79        3PX         0.00014   0.00005  -0.00003   0.00146   0.00008
  80        3PY        -0.00006  -0.00002  -0.00006   0.00211   0.00013
  81        3PZ        -0.00001   0.00000   0.00000  -0.00008   0.00000
  82        4S          0.00277   0.00183   0.00748   0.00565   0.00195
  83        4PX         0.00137  -0.00029  -0.00138   0.00305   0.00074
  84        4PY        -0.00139  -0.00101  -0.00322  -0.00312  -0.00121
  85        4PZ        -0.00007   0.00002   0.00008  -0.00015  -0.00003
  86        5D 0       -0.00002  -0.00001  -0.00004   0.00043  -0.00002
  87        5D+1        0.00000   0.00000  -0.00001   0.00000  -0.00001
  88        5D-1        0.00001   0.00000   0.00000   0.00007   0.00000
  89        5D+2        0.00004   0.00002   0.00012   0.00080   0.00009
  90        5D-2       -0.00009  -0.00002   0.00002  -0.00119  -0.00006
  91 6   C  1S          0.00000   0.00000   0.00000  -0.00003  -0.00003
  92        2S          0.00001   0.00001   0.00000   0.00004  -0.00001
  93        2PX        -0.00003  -0.00001  -0.00002  -0.00014  -0.00002
  94        2PY         0.00000   0.00000   0.00000   0.00001  -0.00001
  95        2PZ         0.00000   0.00000   0.00000   0.00001   0.00000
  96        3S         -0.00006  -0.00004   0.00008  -0.00028  -0.00011
  97        3PX         0.00018   0.00008   0.00015   0.00102   0.00013
  98        3PY         0.00001  -0.00001   0.00003   0.00006   0.00008
  99        3PZ        -0.00001   0.00000  -0.00001  -0.00005  -0.00001
 100        4S         -0.00187  -0.00022  -0.00213  -0.00465  -0.00111
 101        4PX         0.00048  -0.00020   0.00007   0.00138   0.00033
 102        4PY         0.00032   0.00024   0.00175   0.00096   0.00022
 103        4PZ        -0.00003   0.00001  -0.00001  -0.00007  -0.00002
 104        5D 0       -0.00001  -0.00001   0.00002   0.00002  -0.00001
 105        5D+1        0.00000   0.00000   0.00000   0.00003   0.00000
 106        5D-1        0.00000   0.00000   0.00000   0.00000   0.00000
 107        5D+2       -0.00005  -0.00002  -0.00005  -0.00047  -0.00004
 108        5D-2       -0.00003   0.00000   0.00003  -0.00001   0.00004
 109 7   C  1S          0.00000   0.00000   0.00000  -0.00008  -0.00002
 110        2S          0.00001   0.00001   0.00001   0.00000   0.00001
 111        2PX         0.00000   0.00000   0.00000  -0.00003  -0.00001
 112        2PY         0.00001   0.00000  -0.00001   0.00002  -0.00003
 113        2PZ         0.00000   0.00000   0.00000   0.00000   0.00000
 114        3S         -0.00009  -0.00003  -0.00014  -0.00042  -0.00016
 115        3PX         0.00004   0.00004   0.00000   0.00031   0.00011
 116        3PY        -0.00005   0.00001   0.00006  -0.00012   0.00018
 117        3PZ         0.00000   0.00000   0.00000  -0.00002  -0.00001
 118        4S          0.00152   0.00009   0.00160   0.00418   0.00015
 119        4PX        -0.00066  -0.00002  -0.00112  -0.00224  -0.00039
 120        4PY        -0.00021   0.00022   0.00075  -0.00066  -0.00002
 121        4PZ         0.00003   0.00000   0.00006   0.00012   0.00002
 122        5D 0       -0.00001   0.00000  -0.00002  -0.00001  -0.00001
 123        5D+1        0.00000   0.00000   0.00000  -0.00001   0.00000
 124        5D-1        0.00000   0.00000   0.00000   0.00000   0.00000
 125        5D+2        0.00002   0.00001  -0.00001   0.00009   0.00000
 126        5D-2        0.00002   0.00000  -0.00001   0.00003  -0.00008
 127 8   C  1S          0.00000   0.00000   0.00000  -0.00003   0.00011
 128        2S          0.00001   0.00001   0.00001   0.00003   0.00012
 129        2PX        -0.00003  -0.00001  -0.00002  -0.00013  -0.00007
 130        2PY         0.00001   0.00000  -0.00001   0.00003   0.00000
 131        2PZ         0.00000   0.00000   0.00000   0.00001   0.00000
 132        3S         -0.00003  -0.00008  -0.00004  -0.00019  -0.00013
 133        3PX         0.00016   0.00006   0.00011   0.00096   0.00048
 134        3PY        -0.00007  -0.00002   0.00001  -0.00026  -0.00001
 135        3PZ        -0.00001   0.00000  -0.00001  -0.00005  -0.00003
 136        4S         -0.00258   0.00016  -0.00313  -0.00457   0.00291
 137        4PX         0.00047   0.00004   0.00146   0.00057  -0.00103
 138        4PY        -0.00118   0.00017   0.00051  -0.00360   0.00015
 139        4PZ        -0.00002   0.00000  -0.00008  -0.00002   0.00005
 140        5D 0       -0.00002  -0.00001   0.00000  -0.00001   0.00000
 141        5D+1        0.00000   0.00000   0.00000   0.00002   0.00002
 142        5D-1        0.00000   0.00000   0.00000   0.00000   0.00000
 143        5D+2       -0.00002  -0.00003  -0.00002  -0.00044  -0.00034
 144        5D-2        0.00003   0.00000  -0.00005   0.00000  -0.00008
 145 9   C  1S          0.00000   0.00000  -0.00003   0.00372   0.01398
 146        2S          0.00001   0.00001   0.00000   0.00318   0.01151
 147        2PX        -0.00002  -0.00003  -0.00004  -0.00035  -0.00036
 148        2PY         0.00001   0.00000  -0.00005   0.00069  -0.00051
 149        2PZ         0.00000   0.00000   0.00000   0.00002   0.00002
 150        3S         -0.00001  -0.00005   0.00007  -0.00027   0.00041
 151        3PX         0.00007   0.00015   0.00020   0.00126   0.00100
 152        3PY        -0.00009  -0.00002   0.00030  -0.00252   0.00128
 153        3PZ         0.00000  -0.00001  -0.00001  -0.00006  -0.00006
 154        4S          0.00115  -0.00062  -0.00439   0.00585   0.00457
 155        4PX         0.00260   0.00040   0.00530   0.00205  -0.00555
 156        4PY         0.00325   0.00039  -0.00280   0.01036  -0.00041
 157        4PZ        -0.00015  -0.00002  -0.00027  -0.00013   0.00029
 158        5D 0       -0.00001   0.00000   0.00008   0.00041   0.00024
 159        5D+1        0.00000   0.00000   0.00001  -0.00001   0.00001
 160        5D-1       -0.00001   0.00000   0.00001  -0.00006   0.00004
 161        5D+2       -0.00006   0.00003   0.00003   0.00076   0.00036
 162        5D-2        0.00009   0.00001  -0.00010   0.00113  -0.00071
 163 10  C  1S          0.00000   0.00000  -0.00003  -0.00004   0.56366
 164        2S          0.00001   0.00002   0.00004   0.00000   0.46339
 165        2PX         0.00000  -0.00004  -0.00012   0.00008   0.00034
 166        2PY        -0.00002   0.00001  -0.00004   0.00008   0.00013
 167        2PZ         0.00000   0.00000   0.00001   0.00000  -0.00002
 168        3S         -0.00013  -0.00009  -0.00040  -0.00021   0.01326
 169        3PX         0.00004   0.00024   0.00098  -0.00051  -0.00153
 170        3PY         0.00006  -0.00005   0.00014  -0.00054  -0.00046
 171        3PZ         0.00000  -0.00001  -0.00005   0.00003   0.00008
 172        4S          0.00458  -0.00174   0.00240   0.00482  -0.00988
 173        4PX        -0.00026   0.00093  -0.00228   0.00311   0.00335
 174        4PY         0.00132   0.00028   0.00081   0.00276  -0.00568
 175        4PZ         0.00001  -0.00005   0.00012  -0.00017  -0.00017
 176        5D 0       -0.00001   0.00000   0.00001  -0.00004  -0.00127
 177        5D+1        0.00000   0.00000   0.00002  -0.00002  -0.00015
 178        5D-1        0.00000   0.00000  -0.00001   0.00002   0.00002
 179        5D+2       -0.00002  -0.00004  -0.00044   0.00031   0.00057
 180        5D-2       -0.00002   0.00008   0.00015  -0.00036  -0.00040
 181 11  C  1S          0.00000   0.00000   0.00129  -0.00005   0.01610
 182        2S          0.00000   0.00002   0.00107  -0.00001   0.01346
 183        2PX         0.00000  -0.00004  -0.00030   0.00005   0.00078
 184        2PY         0.00004  -0.00001   0.00049   0.00001  -0.00005
 185        2PZ         0.00000   0.00000   0.00002   0.00000  -0.00004
 186        3S          0.00012  -0.00012   0.00034  -0.00006  -0.00037
 187        3PX         0.00002   0.00022   0.00102  -0.00046  -0.00330
 188        3PY        -0.00023  -0.00003  -0.00134  -0.00005   0.00010
 189        3PZ         0.00000  -0.00001  -0.00005   0.00003   0.00018
 190        4S         -0.00146   0.00205   0.00111  -0.00148   0.00536
 191        4PX        -0.00185   0.00236  -0.00192   0.00182   0.00208
 192        4PY        -0.00084   0.00073   0.00165  -0.00213   0.00242
 193        4PZ         0.00010  -0.00013   0.00010  -0.00010  -0.00011
 194        5D 0        0.00000  -0.00001   0.00024   0.00006   0.00057
 195        5D+1       -0.00001   0.00000  -0.00002   0.00001   0.00014
 196        5D-1        0.00000  -0.00001  -0.00004   0.00000  -0.00001
 197        5D+2        0.00011   0.00000   0.00072  -0.00017  -0.00161
 198        5D-2        0.00004   0.00021   0.00075  -0.00001   0.00018
 199 12  H  1S         -0.00006  -0.00002  -0.00004  -0.00019  -0.00004
 200        2S          0.00037   0.00007   0.00014   0.00003   0.00023
 201        3S          0.00023   0.00011   0.00024   0.00091   0.00029
 202        4PX         0.00003   0.00003   0.00004  -0.00015   0.00001
 203        4PY         0.00001   0.00001  -0.00001   0.00038   0.00002
 204        4PZ         0.00000   0.00000   0.00000   0.00001   0.00000
 205 13  H  1S         -0.00001  -0.00001   0.00001  -0.00007  -0.00003
 206        2S          0.00002   0.00000  -0.00025  -0.00019  -0.00002
 207        3S          0.00000   0.00002  -0.00022  -0.00001   0.00000
 208        4PX         0.00000   0.00001   0.00001   0.00007   0.00000
 209        4PY         0.00000   0.00000   0.00001   0.00011   0.00003
 210        4PZ         0.00000   0.00000   0.00000   0.00000   0.00000
 211 14  H  1S         -0.00002  -0.00001  -0.00002  -0.00008  -0.00003
 212        2S          0.00003  -0.00001   0.00018   0.00018   0.00011
 213        3S          0.00011   0.00002   0.00020   0.00047   0.00016
 214        4PX         0.00002   0.00001   0.00000   0.00008   0.00000
 215        4PY         0.00001  -0.00001  -0.00002   0.00001   0.00000
 216        4PZ         0.00000   0.00000   0.00000   0.00000   0.00000
 217 15  H  1S          0.00000  -0.00001  -0.00002  -0.00003  -0.00004
 218        2S         -0.00016   0.00001   0.00010  -0.00078  -0.00026
 219        3S         -0.00018   0.00001   0.00006  -0.00056   0.00002
 220        4PX         0.00002   0.00001   0.00000   0.00012   0.00011
 221        4PY        -0.00001  -0.00001  -0.00001  -0.00016  -0.00010
 222        4PZ         0.00000   0.00000   0.00000  -0.00001  -0.00001
 223 16  H  1S         -0.00002  -0.00001  -0.00007  -0.00005   0.00052
 224        2S         -0.00002   0.00008   0.00019  -0.00022  -0.00396
 225        3S          0.00015   0.00008   0.00047   0.00013  -0.00015
 226        4PX         0.00001  -0.00002   0.00008  -0.00005   0.00079
 227        4PY        -0.00001  -0.00001  -0.00004  -0.00014  -0.00155
 228        4PZ         0.00000   0.00000   0.00000   0.00000  -0.00004
 229 17  H  1S          0.00003  -0.00009  -0.00008  -0.00001  -0.00017
 230        2S         -0.00048   0.00047  -0.00050  -0.00012  -0.00049
 231        3S         -0.00029   0.00026   0.00022  -0.00003   0.00098
 232        4PX         0.00001  -0.00003  -0.00005  -0.00009  -0.00039
 233        4PY        -0.00008   0.00000  -0.00029   0.00001  -0.00039
 234        4PZ         0.00000   0.00000   0.00000   0.00000   0.00002
                           6         7         8         9        10
                           O         O         O         O         O
     Eigenvalues --   -10.57627 -10.57023 -10.56966 -10.56785 -10.56222
   1 1   O  1S          0.00000   0.00000   0.00000   0.00000   0.00000
   2        2S          0.00001   0.00001   0.00002   0.00000   0.00001
   3        2PX         0.00000   0.00000   0.00002   0.00000  -0.00001
   4        2PY         0.00000   0.00000   0.00001   0.00000   0.00000
   5        2PZ         0.00000   0.00000   0.00000   0.00000   0.00000
   6        3S         -0.00009  -0.00006  -0.00012  -0.00005  -0.00006
   7        3PX         0.00000  -0.00002  -0.00016   0.00000   0.00001
   8        3PY         0.00000  -0.00001   0.00001  -0.00002   0.00001
   9        3PZ         0.00000   0.00000   0.00001   0.00000   0.00000
  10        4S          0.00036   0.00016   0.00011   0.00019   0.00031
  11        4PX        -0.00001   0.00004  -0.00028   0.00003  -0.00006
  12        4PY         0.00011   0.00005   0.00021   0.00005   0.00000
  13        4PZ         0.00000   0.00000   0.00001   0.00000   0.00000
  14        5D 0        0.00000   0.00000   0.00003  -0.00001   0.00001
  15        5D+1        0.00000   0.00000   0.00001   0.00000   0.00000
  16        5D-1        0.00000   0.00000   0.00000   0.00000   0.00000
  17        5D+2       -0.00001   0.00000  -0.00008   0.00000  -0.00001
  18        5D-2        0.00002   0.00000   0.00007   0.00000   0.00001
  19 2   C  1S          0.00003   0.00000  -0.00137   0.00000   0.00000
  20        2S          0.00004   0.00001  -0.00113   0.00000   0.00002
  21        2PX        -0.00002   0.00000   0.00021  -0.00001  -0.00001
  22        2PY        -0.00003  -0.00001  -0.00048  -0.00001   0.00002
  23        2PZ         0.00000   0.00000  -0.00001   0.00000   0.00000
  24        3S         -0.00016  -0.00010   0.00028  -0.00001  -0.00024
  25        3PX         0.00003  -0.00004  -0.00036   0.00006   0.00000
  26        3PY         0.00022   0.00005   0.00102   0.00010  -0.00006
  27        3PZ         0.00000   0.00000   0.00002   0.00000   0.00000
  28        4S          0.00192   0.00035   0.00385   0.00102   0.00159
  29        4PX         0.00109   0.00025   0.00225   0.00050   0.00108
  30        4PY        -0.00081  -0.00029  -0.00050  -0.00030  -0.00032
  31        4PZ        -0.00006  -0.00001  -0.00012  -0.00003  -0.00006
  32        5D 0       -0.00004  -0.00002   0.00026  -0.00003  -0.00005
  33        5D+1       -0.00001   0.00000   0.00000   0.00000  -0.00001
  34        5D-1       -0.00001   0.00000  -0.00002   0.00000   0.00000
  35        5D+2        0.00007   0.00003   0.00047  -0.00002   0.00005
  36        5D-2        0.00012   0.00001   0.00045   0.00002   0.00001
  37 3   O  1S          0.00000   0.00000   0.00000   0.00000   0.00000
  38        2S          0.00000   0.00001   0.00000   0.00001   0.00001
  39        2PX         0.00002   0.00003   0.00001   0.00004   0.00003
  40        2PY         0.00000  -0.00001  -0.00001   0.00002   0.00000
  41        2PZ         0.00000   0.00000   0.00000   0.00000   0.00000
  42        3S          0.00013  -0.00002   0.00018  -0.00002  -0.00001
  43        3PX        -0.00012  -0.00010  -0.00004  -0.00016  -0.00013
  44        3PY         0.00001   0.00004   0.00003  -0.00007   0.00000
  45        3PZ         0.00001   0.00000   0.00000   0.00001   0.00001
  46        4S         -0.00118  -0.00042  -0.00147  -0.00044  -0.00014
  47        4PX        -0.00051   0.00002   0.00029   0.00024  -0.00033
  48        4PY         0.00070  -0.00006   0.00104   0.00045   0.00002
  49        4PZ         0.00003   0.00000  -0.00002  -0.00001   0.00002
  50        5D 0        0.00007   0.00001   0.00005   0.00003   0.00005
  51        5D+1        0.00001   0.00000   0.00000   0.00000   0.00001
  52        5D-1        0.00000   0.00000   0.00000   0.00000   0.00000
  53        5D+2       -0.00010  -0.00002   0.00004  -0.00004  -0.00011
  54        5D-2        0.00004   0.00001  -0.00005  -0.00002  -0.00001
  55 4   C  1S         -0.00385   0.00026   0.00004  -0.00022  -0.00321
  56        2S         -0.00305   0.00026   0.00006  -0.00010  -0.00253
  57        2PX         0.00035   0.00006   0.00004   0.00010   0.00033
  58        2PY        -0.00067  -0.00004  -0.00006   0.00016   0.00066
  59        2PZ        -0.00002   0.00000   0.00000  -0.00001  -0.00002
  60        3S         -0.00026  -0.00014  -0.00015  -0.00027  -0.00036
  61        3PX        -0.00103  -0.00045  -0.00021  -0.00056  -0.00093
  62        3PY         0.00230   0.00044   0.00048  -0.00093  -0.00215
  63        3PZ         0.00005   0.00002   0.00001   0.00003   0.00006
  64        4S          0.00291  -0.00585  -0.00086  -0.00490   0.00754
  65        4PX         0.00031  -0.00294  -0.00021  -0.00212   0.00392
  66        4PY        -0.00361   0.00012  -0.00303  -0.00195   0.00104
  67        4PZ        -0.00001   0.00015   0.00002   0.00012  -0.00021
  68        5D 0        0.00045   0.00002  -0.00001   0.00009   0.00043
  69        5D+1        0.00001   0.00000  -0.00001   0.00000   0.00002
  70        5D-1       -0.00005  -0.00001  -0.00001   0.00003   0.00006
  71        5D+2        0.00053   0.00010   0.00011   0.00019   0.00049
  72        5D-2        0.00111   0.00025   0.00017  -0.00047  -0.00100
  73 5   C  1S         -0.00040  -0.00048  -0.00005   0.04049   0.56255
  74        2S         -0.00027  -0.00034  -0.00003   0.03340   0.46244
  75        2PX        -0.00004   0.00003   0.00000   0.00072  -0.00017
  76        2PY        -0.00009   0.00000   0.00000   0.00005  -0.00010
  77        2PZ         0.00000   0.00000   0.00000  -0.00004   0.00001
  78        3S         -0.00026  -0.00043  -0.00014   0.00064   0.01326
  79        3PX         0.00028  -0.00027   0.00002  -0.00252   0.00046
  80        3PY         0.00076   0.00012   0.00008  -0.00027  -0.00013
  81        3PZ        -0.00002   0.00001   0.00000   0.00013  -0.00002
  82        4S          0.00049   0.00454   0.00273   0.00707  -0.01122
  83        4PX        -0.00149   0.00153  -0.00089   0.00154  -0.00358
  84        4PY        -0.00017  -0.00219  -0.00101  -0.00350   0.00606
  85        4PZ         0.00008  -0.00007   0.00005  -0.00007   0.00017
  86        5D 0        0.00001  -0.00001  -0.00002   0.00032  -0.00137
  87        5D+1       -0.00001   0.00000  -0.00001   0.00010  -0.00013
  88        5D-1        0.00002   0.00000   0.00000  -0.00001   0.00000
  89        5D+2        0.00024  -0.00009   0.00006  -0.00131   0.00014
  90        5D-2       -0.00033  -0.00003  -0.00003   0.00007  -0.00012
  91 6   C  1S         -0.00057   0.00239   0.00003   0.56191  -0.04018
  92        2S         -0.00041   0.00201   0.00003   0.46195  -0.03291
  93        2PX        -0.00001   0.00009   0.00000   0.00000  -0.00071
  94        2PY        -0.00003  -0.00015   0.00000   0.00005   0.00005
  95        2PZ         0.00000   0.00000   0.00000   0.00000   0.00004
  96        3S         -0.00037  -0.00002   0.00000   0.01304  -0.00126
  97        3PX         0.00012  -0.00048   0.00004  -0.00019   0.00244
  98        3PY         0.00029   0.00095   0.00003  -0.00007  -0.00021
  99        3PZ        -0.00001   0.00002   0.00000   0.00001  -0.00013
 100        4S          0.00170  -0.00551   0.00004  -0.00971   0.00740
 101        4PX        -0.00080   0.00128   0.00019   0.00291  -0.00271
 102        4PY        -0.00067   0.00216   0.00045   0.00561  -0.00394
 103        4PZ         0.00004  -0.00007  -0.00001  -0.00017   0.00015
 104        5D 0       -0.00001   0.00005   0.00000  -0.00124   0.00051
 105        5D+1        0.00000  -0.00001   0.00000  -0.00011   0.00012
 106        5D-1       -0.00001  -0.00002   0.00000  -0.00001   0.00000
 107        5D+2       -0.00004   0.00027  -0.00002   0.00001  -0.00131
 108        5D-2        0.00012   0.00042   0.00002   0.00006  -0.00011
 109 7   C  1S          0.00062   0.02355  -0.00002   0.02787  -0.00987
 110        2S          0.00058   0.01949  -0.00001   0.02301  -0.00807
 111        2PX        -0.00007  -0.00030   0.00000  -0.00029  -0.00006
 112        2PY        -0.00014  -0.00063  -0.00001   0.00064   0.00008
 113        2PZ         0.00000   0.00002   0.00000   0.00001   0.00000
 114        3S         -0.00023   0.00020  -0.00007   0.00043  -0.00032
 115        3PX         0.00057   0.00099   0.00003   0.00088   0.00053
 116        3PY         0.00082   0.00216   0.00008  -0.00216  -0.00065
 117        3PZ        -0.00003  -0.00006   0.00000  -0.00004  -0.00003
 118        4S         -0.00049   0.00768   0.00156   0.00686  -0.00493
 119        4PX         0.00047  -0.00466  -0.00032  -0.00431   0.00241
 120        4PY        -0.00022  -0.00051  -0.00072   0.00037  -0.00007
 121        4PZ        -0.00002   0.00024   0.00002   0.00022  -0.00013
 122        5D 0        0.00005   0.00038  -0.00001   0.00031   0.00004
 123        5D+1       -0.00001   0.00001   0.00000   0.00000  -0.00001
 124        5D-1        0.00002   0.00006   0.00000  -0.00006  -0.00002
 125        5D+2        0.00024   0.00060  -0.00001   0.00053   0.00016
 126        5D-2       -0.00044  -0.00115  -0.00004   0.00114   0.00031
 127 8   C  1S          0.03421   0.56254   0.00018  -0.00349   0.00107
 128        2S          0.02822   0.46244   0.00017  -0.00281   0.00094
 129        2PX        -0.00074  -0.00006  -0.00003   0.00007  -0.00003
 130        2PY        -0.00003  -0.00012  -0.00002   0.00016   0.00000
 131        2PZ         0.00004   0.00000   0.00000   0.00000   0.00000
 132        3S          0.00073   0.01317  -0.00011  -0.00021  -0.00037
 133        3PX         0.00259   0.00003   0.00025  -0.00036   0.00020
 134        3PY         0.00011   0.00024   0.00008  -0.00109  -0.00016
 135        3PZ        -0.00014   0.00000  -0.00001   0.00002  -0.00001
 136        4S          0.00025  -0.01283   0.00007  -0.00669   0.00293
 137        4PX        -0.00078   0.00401  -0.00114   0.00186  -0.00071
 138        4PY        -0.00015  -0.00701  -0.00133  -0.00267   0.00172
 139        4PZ         0.00004  -0.00019   0.00006  -0.00009   0.00003
 140        5D 0        0.00032  -0.00130  -0.00001   0.00007  -0.00003
 141        5D+1        0.00010  -0.00012   0.00001  -0.00001   0.00000
 142        5D-1       -0.00001  -0.00001   0.00000   0.00002   0.00000
 143        5D+2       -0.00132  -0.00004  -0.00012   0.00026  -0.00006
 144        5D-2        0.00008   0.00002  -0.00005  -0.00043  -0.00004
 145 9   C  1S          0.56284  -0.03432   0.00124   0.00076   0.00028
 146        2S          0.46273  -0.02813   0.00107   0.00069   0.00028
 147        2PX        -0.00017   0.00075  -0.00009   0.00004  -0.00003
 148        2PY        -0.00009   0.00002  -0.00012   0.00008   0.00012
 149        2PZ         0.00001  -0.00004   0.00001   0.00000   0.00000
 150        3S          0.01258  -0.00096  -0.00004  -0.00036  -0.00010
 151        3PX         0.00017  -0.00239   0.00064  -0.00030   0.00023
 152        3PY         0.00063  -0.00014   0.00082  -0.00058  -0.00083
 153        3PZ        -0.00001   0.00013  -0.00004   0.00002  -0.00001
 154        4S         -0.01065   0.00658  -0.00501   0.00124  -0.00530
 155        4PX         0.00268   0.00529   0.00064   0.00448   0.00057
 156        4PY        -0.00005   0.00639   0.00076   0.00396  -0.00083
 157        4PZ        -0.00014  -0.00029  -0.00003  -0.00024  -0.00003
 158        5D 0       -0.00114   0.00047   0.00004   0.00000   0.00006
 159        5D+1       -0.00011   0.00010   0.00000   0.00000  -0.00001
 160        5D-1        0.00000   0.00000   0.00003  -0.00001  -0.00001
 161        5D+2        0.00016  -0.00113   0.00011   0.00000   0.00027
 162        5D-2       -0.00012  -0.00002  -0.00051   0.00012   0.00030
 163 10  C  1S         -0.01400   0.00074  -0.01635   0.00001   0.00001
 164        2S         -0.01149   0.00063  -0.01321   0.00003   0.00003
 165        2PX         0.00036   0.00002  -0.00086   0.00002   0.00003
 166        2PY         0.00050   0.00002  -0.00001   0.00001   0.00001
 167        2PZ        -0.00002   0.00000   0.00005   0.00000   0.00000
 168        3S         -0.00017  -0.00013  -0.00119  -0.00018  -0.00026
 169        3PX        -0.00114  -0.00021   0.00376  -0.00015  -0.00022
 170        3PY        -0.00134  -0.00028  -0.00006  -0.00006  -0.00013
 171        3PZ         0.00006   0.00001  -0.00020   0.00001   0.00001
 172        4S          0.00441   0.00449   0.00627   0.00455   0.00215
 173        4PX         0.00014   0.00060  -0.00228   0.00026  -0.00023
 174        4PY         0.00274   0.00164   0.00275   0.00220   0.00154
 175        4PZ        -0.00001  -0.00003   0.00012  -0.00002   0.00001
 176        5D 0        0.00029  -0.00004   0.00064  -0.00002  -0.00004
 177        5D+1        0.00000  -0.00001   0.00016  -0.00001  -0.00001
 178        5D-1        0.00005   0.00002  -0.00001   0.00001   0.00000
 179        5D+2        0.00056   0.00005  -0.00177   0.00008   0.00010
 180        5D-2       -0.00082  -0.00031   0.00024  -0.00009  -0.00008
 181 11  C  1S         -0.00166  -0.00009   0.56383  -0.00003   0.00005
 182        2S         -0.00132  -0.00005   0.46350  -0.00002   0.00005
 183        2PX         0.00009   0.00003  -0.00031   0.00002   0.00002
 184        2PY        -0.00001   0.00000   0.00032   0.00000   0.00001
 185        2PZ         0.00000   0.00000   0.00002   0.00000   0.00000
 186        3S         -0.00018  -0.00012   0.01335   0.00000  -0.00004
 187        3PX        -0.00084  -0.00020   0.00176  -0.00019  -0.00019
 188        3PY        -0.00002   0.00000  -0.00080   0.00000  -0.00009
 189        3PZ         0.00004   0.00001  -0.00010   0.00001   0.00001
 190        4S         -0.00275  -0.00073  -0.00889  -0.00153  -0.00180
 191        4PX        -0.00036   0.00013  -0.00386  -0.00029  -0.00032
 192        4PY        -0.00172  -0.00023  -0.00418  -0.00097  -0.00098
 193        4PZ         0.00002  -0.00001   0.00021   0.00002   0.00002
 194        5D 0        0.00003  -0.00001  -0.00139   0.00000   0.00001
 195        5D+1        0.00002   0.00000  -0.00018   0.00000   0.00000
 196        5D-1        0.00000   0.00000  -0.00002   0.00000   0.00000
 197        5D+2       -0.00037  -0.00007   0.00094  -0.00006  -0.00006
 198        5D-2        0.00000  -0.00004   0.00038   0.00000   0.00003
 199 12  H  1S         -0.00005  -0.00008   0.00000  -0.00013   0.00051
 200        2S         -0.00040   0.00029  -0.00013  -0.00033  -0.00398
 201        3S         -0.00002   0.00048   0.00002   0.00097  -0.00020
 202        4PX        -0.00004  -0.00004   0.00001  -0.00031  -0.00089
 203        4PY         0.00015   0.00005   0.00004   0.00038   0.00150
 204        4PZ         0.00000   0.00000   0.00000   0.00002   0.00004
 205 13  H  1S         -0.00007  -0.00004   0.00000   0.00048  -0.00021
 206        2S          0.00006  -0.00043  -0.00015  -0.00387   0.00037
 207        3S          0.00028  -0.00024  -0.00006  -0.00011   0.00103
 208        4PX         0.00004   0.00006   0.00000   0.00088   0.00016
 209        4PY         0.00006   0.00014   0.00002   0.00152   0.00015
 210        4PZ         0.00000   0.00000   0.00000  -0.00005  -0.00001
 211 14  H  1S         -0.00006  -0.00015   0.00000  -0.00015  -0.00003
 212        2S         -0.00033  -0.00005  -0.00007  -0.00005  -0.00035
 213        3S          0.00004   0.00111   0.00007   0.00106  -0.00029
 214        4PX         0.00017   0.00042   0.00001   0.00041   0.00009
 215        4PY         0.00003   0.00008   0.00002  -0.00007   0.00000
 216        4PZ        -0.00001  -0.00002   0.00000  -0.00002   0.00000
 217 15  H  1S         -0.00007   0.00053   0.00000  -0.00003  -0.00007
 218        2S         -0.00095  -0.00415  -0.00031  -0.00060   0.00019
 219        3S          0.00039  -0.00041  -0.00016  -0.00042   0.00034
 220        4PX         0.00034   0.00087   0.00008   0.00007   0.00002
 221        4PY        -0.00042  -0.00153  -0.00002  -0.00017  -0.00006
 222        4PZ        -0.00002  -0.00004   0.00000   0.00000   0.00000
 223 16  H  1S         -0.00009  -0.00004  -0.00021  -0.00003  -0.00004
 224        2S         -0.00022  -0.00023  -0.00026   0.00013   0.00021
 225        3S          0.00054   0.00009   0.00087   0.00030   0.00029
 226        4PX         0.00001   0.00001   0.00029  -0.00003  -0.00003
 227        4PY        -0.00027  -0.00014  -0.00036  -0.00003  -0.00003
 228        4PZ         0.00000   0.00000  -0.00002   0.00000   0.00000
 229 17  H  1S         -0.00002  -0.00001   0.00047   0.00000   0.00000
 230        2S         -0.00040   0.00005  -0.00383  -0.00016  -0.00018
 231        3S         -0.00016   0.00009   0.00005  -0.00011  -0.00008
 232        4PX        -0.00009  -0.00001  -0.00093  -0.00001  -0.00003
 233        4PY        -0.00007   0.00001  -0.00151  -0.00001  -0.00002
 234        4PZ         0.00000   0.00000   0.00005   0.00000   0.00000
                          11        12        13        14        15
                           O         O         O         O         O
     Eigenvalues --   -10.56035  -1.25438  -1.15524  -0.99256  -0.93956
   1 1   O  1S          0.00000  -0.03810  -0.09644  -0.00761   0.01425
   2        2S          0.00000  -0.06249  -0.15849  -0.01251   0.02368
   3        2PX         0.00000   0.03140   0.06431   0.00188  -0.00319
   4        2PY         0.00000   0.00017  -0.01065  -0.00483  -0.00478
   5        2PZ         0.00000  -0.00167  -0.00339  -0.00008   0.00018
   6        3S         -0.00003   0.17694   0.44944   0.03530  -0.06968
   7        3PX         0.00000   0.04818   0.09621   0.00164  -0.00628
   8        3PY         0.00002   0.00055  -0.01637  -0.00712  -0.00719
   9        3PZ         0.00000  -0.00257  -0.00506  -0.00007   0.00034
  10        4S          0.00011   0.12083   0.33048   0.02830  -0.05262
  11        4PX        -0.00004   0.02028   0.03901   0.00144   0.00110
  12        4PY        -0.00005   0.00245  -0.00866  -0.00564  -0.00270
  13        4PZ         0.00000  -0.00109  -0.00205  -0.00006  -0.00005
  14        5D 0        0.00000  -0.00326  -0.00702  -0.00022   0.00068
  15        5D+1        0.00000  -0.00070  -0.00140  -0.00002   0.00016
  16        5D-1        0.00000  -0.00001   0.00027   0.00008   0.00005
  17        5D+2       -0.00001   0.00754   0.01440   0.00015  -0.00184
  18        5D-2        0.00000   0.00022  -0.00491  -0.00151  -0.00100
  19 2   C  1S          0.00000  -0.05334  -0.04584   0.00282  -0.01934
  20        2S          0.00001  -0.08415  -0.07151   0.00470  -0.03140
  21        2PX         0.00000  -0.00196  -0.09950  -0.01252   0.03681
  22        2PY         0.00001   0.03576  -0.00637  -0.02206  -0.02918
  23        2PZ         0.00000  -0.00004   0.00531   0.00073  -0.00192
  24        3S         -0.00014   0.21803   0.18910  -0.01238   0.08696
  25        3PX        -0.00003   0.00788  -0.12685  -0.01887   0.05244
  26        3PY        -0.00004   0.05747  -0.01107  -0.03590  -0.04405
  27        3PZ         0.00000  -0.00063   0.00679   0.00112  -0.00272
  28        4S          0.00095   0.03858   0.04660  -0.01241   0.01860
  29        4PX         0.00053   0.00892   0.03247  -0.00307   0.00466
  30        4PY         0.00000  -0.01201  -0.00112   0.00912  -0.01402
  31        4PZ        -0.00003  -0.00044  -0.00173   0.00014  -0.00022
  32        5D 0       -0.00003  -0.01432  -0.00861   0.00114  -0.00282
  33        5D+1        0.00000  -0.00155  -0.00169  -0.00013  -0.00021
  34        5D-1        0.00000  -0.00085   0.00069   0.00045   0.00023
  35        5D+2        0.00002   0.00315   0.01755   0.00480  -0.00094
  36        5D-2        0.00000   0.01447  -0.01268  -0.00799  -0.00431
  37 3   O  1S          0.00000  -0.09676   0.04639   0.02390   0.01159
  38        2S          0.00001  -0.15906   0.07640   0.03975   0.01933
  39        2PX         0.00001   0.01219  -0.03074   0.01971  -0.01269
  40        2PY         0.00000  -0.03463   0.00576   0.00943  -0.02386
  41        2PZ         0.00000  -0.00054   0.00162  -0.00109   0.00074
  42        3S         -0.00006   0.45349  -0.21797  -0.11852  -0.05951
  43        3PX        -0.00005   0.02003  -0.04759   0.02661  -0.01825
  44        3PY         0.00000  -0.05772   0.01103   0.01534  -0.03446
  45        3PZ         0.00000  -0.00088   0.00251  -0.00147   0.00106
  46        4S          0.00031   0.36039  -0.19009  -0.09141  -0.03740
  47        4PX         0.00009   0.02225  -0.02724   0.02140  -0.01176
  48        4PY         0.00001  -0.02861   0.01146   0.00847  -0.02627
  49        4PZ        -0.00001  -0.00111   0.00142  -0.00118   0.00071
  50        5D 0        0.00002  -0.00874   0.00382   0.00076  -0.00061
  51        5D+1        0.00000  -0.00099   0.00046   0.00001   0.00018
  52        5D-1        0.00000  -0.00029  -0.00004   0.00015   0.00006
  53        5D+2       -0.00003   0.00291  -0.00195   0.00135  -0.00432
  54        5D-2        0.00000   0.00458   0.00103  -0.00268  -0.00143
  55 4   C  1S          0.00001  -0.03366   0.02597  -0.04246   0.01554
  56        2S          0.00007  -0.05326   0.04130  -0.06811   0.02503
  57        2PX         0.00003  -0.03898   0.02539   0.04093  -0.00199
  58        2PY         0.00001  -0.00198   0.00017  -0.00855  -0.03866
  59        2PZ         0.00000   0.00210  -0.00136  -0.00214   0.00020
  60        3S         -0.00044   0.13189  -0.10403   0.18054  -0.06637
  61        3PX        -0.00027  -0.06447   0.04041   0.05750   0.00225
  62        3PY        -0.00004  -0.00357  -0.00048  -0.01340  -0.05733
  63        3PZ         0.00001   0.00347  -0.00217  -0.00299   0.00002
  64        4S          0.00329   0.04782  -0.03480   0.08198  -0.04831
  65        4PX         0.00258   0.06380  -0.01308   0.03224  -0.00313
  66        4PY         0.00157  -0.00121   0.02582  -0.01118  -0.00015
  67        4PZ        -0.00014  -0.00340   0.00062  -0.00167   0.00018
  68        5D 0       -0.00001  -0.01018   0.00732  -0.00769   0.00263
  69        5D+1       -0.00001  -0.00179   0.00120  -0.00040   0.00062
  70        5D-1        0.00000  -0.00011   0.00000   0.00001   0.00002
  71        5D+2        0.00009   0.01556  -0.00979  -0.00558  -0.00698
  72        5D-2        0.00002   0.00184   0.00028  -0.00124  -0.00056
  73 5   C  1S          0.00787  -0.00586   0.00645  -0.04094   0.03863
  74        2S          0.00651  -0.00929   0.01022  -0.06532   0.06199
  75        2PX         0.00010  -0.00489   0.00423   0.01337  -0.01022
  76        2PY        -0.00002  -0.00510   0.00511  -0.02258   0.01156
  77        2PZ         0.00000   0.00027  -0.00024  -0.00063   0.00050
  78        3S          0.00012   0.02460  -0.02592   0.16718  -0.16068
  79        3PX        -0.00081  -0.00816   0.00680   0.01923  -0.01386
  80        3PY         0.00018  -0.00765   0.00873  -0.03257   0.01929
  81        3PZ         0.00004   0.00046  -0.00039  -0.00091   0.00066
  82        4S         -0.00639  -0.03021  -0.01555   0.06768  -0.07917
  83        4PX        -0.00119  -0.02601   0.01698  -0.00297  -0.00650
  84        4PY         0.00274   0.01214   0.00741  -0.00194   0.00103
  85        4PZ         0.00005   0.00134  -0.00091   0.00016   0.00033
  86        5D 0        0.00001  -0.00091   0.00126  -0.00759   0.00618
  87        5D+1        0.00002  -0.00012   0.00012  -0.00062   0.00067
  88        5D-1        0.00000  -0.00021   0.00015   0.00000   0.00012
  89        5D+2       -0.00035   0.00051  -0.00001  -0.00122  -0.00198
  90        5D-2        0.00002   0.00379  -0.00272  -0.00082  -0.00180
  91 6   C  1S         -0.02876  -0.00097   0.00165  -0.04120   0.03845
  92        2S         -0.02355  -0.00158   0.00262  -0.06576   0.06154
  93        2PX         0.00037  -0.00070   0.00129  -0.01242   0.01153
  94        2PY        -0.00056  -0.00040   0.00074  -0.02077   0.01205
  95        2PZ        -0.00002   0.00004  -0.00007   0.00071  -0.00064
  96        3S         -0.00087   0.00456  -0.00688   0.16893  -0.15941
  97        3PX        -0.00124  -0.00279   0.00233  -0.01841   0.01812
  98        3PY         0.00171  -0.00124   0.00143  -0.03083   0.01826
  99        3PZ         0.00006   0.00015  -0.00013   0.00105  -0.00100
 100        4S          0.00761   0.02850  -0.01119   0.08072  -0.06481
 101        4PX        -0.00207  -0.01009   0.00615  -0.00529   0.00276
 102        4PY        -0.00455   0.00191  -0.00513  -0.00875   0.00336
 103        4PZ         0.00012   0.00051  -0.00030   0.00030  -0.00015
 104        5D 0        0.00045  -0.00020   0.00040  -0.00733   0.00577
 105        5D+1        0.00001  -0.00004   0.00005  -0.00068   0.00061
 106        5D-1       -0.00005  -0.00004   0.00003  -0.00002   0.00001
 107        5D+2        0.00063   0.00032  -0.00025   0.00026  -0.00166
 108        5D-2        0.00097   0.00084  -0.00064  -0.00033   0.00027
 109 7   C  1S          0.56282  -0.00055   0.00105  -0.04274   0.02706
 110        2S          0.46265  -0.00095   0.00169  -0.06817   0.04336
 111        2PX         0.00009  -0.00051   0.00096  -0.02514   0.01255
 112        2PY         0.00003  -0.00008   0.00009  -0.00309  -0.01025
 113        2PZ         0.00000   0.00003  -0.00005   0.00131  -0.00062
 114        3S          0.01317   0.00335  -0.00457   0.17443  -0.11184
 115        3PX        -0.00035  -0.00150   0.00156  -0.03694   0.01932
 116        3PY        -0.00027   0.00032  -0.00039  -0.00365  -0.01493
 117        3PZ         0.00002   0.00008  -0.00008   0.00192  -0.00095
 118        4S         -0.01086  -0.01337   0.00219   0.06867  -0.05568
 119        4PX         0.00717   0.00913  -0.00307  -0.00411   0.01019
 120        4PY        -0.00010   0.00434  -0.00415  -0.00174  -0.00867
 121        4PZ        -0.00037  -0.00048   0.00017   0.00021  -0.00051
 122        5D 0       -0.00136  -0.00009   0.00027  -0.00779   0.00444
 123        5D+1       -0.00012   0.00001   0.00002  -0.00071   0.00033
 124        5D-1       -0.00001   0.00000   0.00000  -0.00007  -0.00012
 125        5D+2       -0.00003  -0.00032   0.00014   0.00011   0.00126
 126        5D-2        0.00012  -0.00002   0.00009   0.00064   0.00279
 127 8   C  1S         -0.02354  -0.00115   0.00175  -0.04983   0.00359
 128        2S         -0.01922  -0.00185   0.00275  -0.07951   0.00588
 129        2PX         0.00041  -0.00078   0.00132  -0.01834  -0.01376
 130        2PY         0.00062   0.00033  -0.00069   0.01951  -0.01770
 131        2PZ        -0.00002   0.00004  -0.00007   0.00091   0.00076
 132        3S         -0.00090   0.00501  -0.00670   0.20386  -0.01639
 133        3PX        -0.00142  -0.00409   0.00296  -0.02868  -0.02013
 134        3PY        -0.00212   0.00129  -0.00129   0.02904  -0.02543
 135        3PZ         0.00008   0.00021  -0.00015   0.00143   0.00112
 136        4S          0.00846   0.03983  -0.01994   0.09887   0.01678
 137        4PX        -0.00257  -0.00879   0.00352  -0.01000  -0.02188
 138        4PY         0.00376   0.01359  -0.00758   0.01157  -0.00031
 139        4PZ         0.00013   0.00043  -0.00016   0.00050   0.00115
 140        5D 0        0.00048  -0.00020   0.00045  -0.00886   0.00080
 141        5D+1        0.00001  -0.00005   0.00005  -0.00089  -0.00014
 142        5D-1        0.00006   0.00003  -0.00003  -0.00009  -0.00006
 143        5D+2        0.00071   0.00061  -0.00020   0.00155   0.00397
 144        5D-2       -0.00107  -0.00063   0.00051   0.00103   0.00137
 145 9   C  1S          0.00077  -0.00772   0.00712  -0.06113  -0.03121
 146        2S          0.00068  -0.01233   0.01132  -0.09781  -0.05010
 147        2PX         0.00009  -0.00688   0.00487   0.00698  -0.02419
 148        2PY         0.00003   0.00445  -0.00470   0.01350  -0.03061
 149        2PZ         0.00000   0.00035  -0.00024  -0.00041   0.00134
 150        3S         -0.00012   0.03215  -0.02925   0.25265   0.12953
 151        3PX        -0.00074  -0.01118   0.00673   0.00976  -0.03492
 152        3PY        -0.00023   0.00907  -0.00806   0.01775  -0.04747
 153        3PZ         0.00004   0.00057  -0.00033  -0.00057   0.00194
 154        4S         -0.00567  -0.00713   0.01209   0.09202   0.07466
 155        4PX        -0.00278  -0.04189   0.01248  -0.00502  -0.04217
 156        4PY         0.00008  -0.04169   0.01782  -0.01130  -0.01459
 157        4PZ         0.00015   0.00232  -0.00071   0.00028   0.00223
 158        5D 0        0.00004  -0.00168   0.00141  -0.01124  -0.00549
 159        5D+1        0.00002  -0.00015   0.00014  -0.00102  -0.00058
 160        5D-1        0.00000   0.00016  -0.00011  -0.00019  -0.00030
 161        5D+2       -0.00037   0.00004  -0.00028  -0.00021   0.00123
 162        5D-2       -0.00006  -0.00317   0.00220   0.00265   0.00542
 163 10  C  1S         -0.00001  -0.00477   0.00202  -0.03321  -0.07000
 164        2S          0.00001  -0.00770   0.00329  -0.05292  -0.11219
 165        2PX         0.00004  -0.00255  -0.00053   0.00280  -0.02731
 166        2PY         0.00002   0.00398  -0.00263   0.01719   0.01736
 167        2PZ         0.00000   0.00013   0.00003  -0.00017   0.00145
 168        3S         -0.00015   0.02130  -0.00863   0.13602   0.29228
 169        3PX        -0.00022  -0.00425  -0.00176   0.00669  -0.03433
 170        3PY        -0.00016   0.00651  -0.00408   0.02653   0.02784
 171        3PZ         0.00001   0.00022   0.00010  -0.00040   0.00181
 172        4S          0.00031  -0.04948   0.03412   0.05596   0.09683
 173        4PX         0.00162   0.00172  -0.00706  -0.00318   0.00218
 174        4PY         0.00035  -0.02322   0.00474   0.00449  -0.01089
 175        4PZ        -0.00009  -0.00008   0.00038   0.00017  -0.00010
 176        5D 0       -0.00003  -0.00110   0.00066  -0.00514  -0.00977
 177        5D+1        0.00000  -0.00008   0.00004  -0.00044  -0.00111
 178        5D-1        0.00001   0.00004   0.00006  -0.00017  -0.00003
 179        5D+2        0.00003  -0.00038   0.00042  -0.00091   0.00363
 180        5D-2       -0.00011  -0.00080  -0.00102   0.00285   0.00021
 181 11  C  1S          0.00003  -0.00962  -0.00537  -0.01710  -0.06403
 182        2S          0.00003  -0.01524  -0.00849  -0.02724  -0.10252
 183        2PX         0.00001  -0.00132  -0.00900   0.01366   0.03407
 184        2PY         0.00001   0.00996   0.00378   0.00160   0.01211
 185        2PZ         0.00000   0.00005   0.00047  -0.00074  -0.00188
 186        3S         -0.00003   0.03800   0.02346   0.06900   0.26221
 187        3PX        -0.00008  -0.00381  -0.01219   0.01996   0.04613
 188        3PY        -0.00006   0.01803   0.00332   0.00151   0.02177
 189        3PZ         0.00000   0.00017   0.00065  -0.00108  -0.00255
 190        4S          0.00065   0.02118  -0.02245   0.04151   0.15538
 191        4PX         0.00038   0.01589  -0.02625  -0.00349   0.02972
 192        4PY        -0.00063   0.01165  -0.01216   0.00514   0.01981
 193        4PZ        -0.00002  -0.00088   0.00142   0.00018  -0.00164
 194        5D 0        0.00001  -0.00213  -0.00024  -0.00323  -0.01050
 195        5D+1        0.00000  -0.00008  -0.00013  -0.00051  -0.00122
 196        5D-1        0.00000   0.00016   0.00016  -0.00007   0.00000
 197        5D+2       -0.00004  -0.00209   0.00221   0.00385   0.00436
 198        5D-2        0.00000  -0.00334  -0.00298   0.00132  -0.00043
 199 12  H  1S          0.00000   0.00320  -0.00315   0.01548  -0.02041
 200        2S         -0.00053  -0.00047  -0.00240   0.01511  -0.02429
 201        3S         -0.00030  -0.00308   0.00026  -0.00495   0.00331
 202        4PX        -0.00010   0.00056  -0.00060   0.00147  -0.00210
 203        4PY         0.00012  -0.00122   0.00106  -0.00228   0.00419
 204        4PZ         0.00000  -0.00003   0.00003  -0.00007   0.00010
 205 13  H  1S         -0.00019   0.00028  -0.00044   0.01661  -0.01953
 206        2S          0.00040  -0.00165   0.00091   0.01915  -0.02337
 207        3S          0.00107  -0.00127   0.00102  -0.00217   0.00212
 208        4PX         0.00005   0.00015  -0.00005  -0.00177   0.00227
 209        4PY         0.00022   0.00011  -0.00003  -0.00306   0.00350
 210        4PZ         0.00000  -0.00001   0.00000   0.00010  -0.00013
 211 14  H  1S          0.00051   0.00028  -0.00030   0.01717  -0.01327
 212        2S         -0.00395  -0.00083   0.00022   0.01891  -0.01697
 213        3S         -0.00032  -0.00193   0.00067  -0.00307   0.00035
 214        4PX         0.00172  -0.00024   0.00012  -0.00339   0.00301
 215        4PY         0.00001  -0.00011   0.00011  -0.00012  -0.00034
 216        4PZ        -0.00009   0.00001  -0.00001   0.00018  -0.00016
 217 15  H  1S         -0.00019   0.00022  -0.00038   0.02169   0.00172
 218        2S          0.00012   0.00159  -0.00115   0.02644   0.00423
 219        3S          0.00093   0.00235  -0.00083  -0.00245   0.00435
 220        4PX         0.00009  -0.00017   0.00003  -0.00242  -0.00074
 221        4PY        -0.00029   0.00017  -0.00003   0.00410   0.00050
 222        4PZ         0.00000   0.00001   0.00000   0.00012   0.00004
 223 16  H  1S         -0.00001   0.00093  -0.00041   0.01628   0.03716
 224        2S         -0.00026  -0.00071  -0.00183   0.01949   0.04156
 225        3S         -0.00015  -0.00498   0.00062  -0.00153  -0.00842
 226        4PX        -0.00003  -0.00002   0.00024  -0.00139  -0.00420
 227        4PY        -0.00007   0.00018  -0.00040   0.00319   0.00647
 228        4PZ         0.00000   0.00000  -0.00001   0.00007   0.00022
 229 17  H  1S          0.00001   0.00230   0.00470   0.00746   0.03129
 230        2S         -0.00020   0.00826  -0.00047   0.00630   0.04014
 231        3S         -0.00002   0.00244  -0.00427  -0.00107   0.00100
 232        4PX        -0.00004   0.00054   0.00052   0.00122   0.00465
 233        4PY         0.00000   0.00166   0.00084   0.00054   0.00498
 234        4PZ         0.00000  -0.00003  -0.00003  -0.00007  -0.00025
                          16        17        18        19        20
                           O         O         O         O         O
[...]
   Y17       -4.14384  -0.00004   0.00000  -0.00189  -0.00189  -4.14573
   Z17       -0.04470   0.00000   0.00000   0.00036   0.00036  -0.04435
         Item               Value     Threshold  Converged?
 Maximum Force            0.000449     0.000450     YES
 RMS     Force            0.000104     0.000300     YES
 Maximum Displacement     0.002016     0.001800     NO 
 RMS     Displacement     0.000712     0.001200     YES
 Predicted change in Energy=-7.697710D-07
 GradGradGradGradGradGradGradGradGradGradGradGradGradGradGradGradGradGrad


 Test job not archived.
 1\1\GINC-LEGACY-N0\Freq\RM062X\6-311G(d,p)\C9H6O2\TWS35\14-Aug-2020\0\
 \#N Geom=AllCheck Guess=TCheck SCRF=Check Test GenChk RM062X/6-311G(d,
 p) Freq\\O=C1Oc2ccccc2C=C1\\0,1\O,0.9948443674,0.1057467151,0.04061816
 6\C,2.1788400422,-0.0328676246,-0.0224521204\O,2.9698253784,1.09628784
 07,-0.0681641733\C,4.3265606715,1.0440311412,-0.1406723438\C,5.0078853
 98,2.2561367724,-0.180019106\C,6.3905938215,2.2483573901,-0.2521496073
 \C,7.0975470129,1.0426955766,-0.2854212975\C,6.4106553066,-0.156262897
 5,-0.2468158524\C,5.0120812377,-0.1736151906,-0.1733958953\C,4.2215444
 998,-1.3830648628,-0.1293064653\C,2.8841396319,-1.3183610823,-0.057570
 5995\H,4.4354700521,3.1742889139,-0.1532847058\H,6.9270617502,3.188834
 6285,-0.2829380909\H,8.1784621521,1.0493159457,-0.3416922347\H,6.94496
 67404,-1.0995223505,-0.2726496374\H,4.7328225894,-2.3399301557,-0.1558
 524345\H,2.2493548311,-2.192826384,-0.023655156\\Version=EM64L-G09RevD
 .01\HF=-496.9472903\RMSD=1.844e-09\RMSF=1.038e-04\ZeroPoint=0.128405\T
 hermal=0.1360575\Dipole=1.8226371,-0.4629196,-0.0971811\DipoleDeriv=-1
 .7850556,-0.1003511,0.0755193,0.2715356,-0.4542915,-0.0145126,0.074452
 ,0.0054376,-0.3825518,2.4449175,0.2162273,-0.1110002,-0.0775652,0.9364
 385,0.0026756,-0.1115717,-0.0128804,0.3919044,-1.4345988,-0.2154701,0.
 0663244,-0.6550272,-0.6750481,0.0364273,0.0692891,0.0127653,-0.2049682
 ,0.938519,0.0279592,-0.0419776,0.1001828,0.1261545,-0.0054608,-0.04314
 87,-0.0012769,0.1571806,-0.1880857,-0.0104004,0.0021208,-0.1459215,0.0
 33855,0.0073148,0.0023595,-0.0005811,-0.1577218,-0.0432605,-0.1223823,
 -0.0035806,0.0456097,0.1526806,-0.0033143,-0.0038856,0.0057476,-0.1172
 314,0.0437485,-0.0084128,-0.0103475,-0.1717856,-0.3420761,0.009589,-0.
 0090676,0.0010757,-0.1527726,0.2501273,0.1565835,-0.0203534,-0.0113803
 ,0.161175,0.000146,-0.0194612,-0.0091021,-0.1188838,-0.3299816,-0.0874
 847,0.016941,-0.1387634,-0.3024532,0.0077978,0.0162241,0.0051245,-0.02
 77107,0.5602276,0.1493262,-0.0345517,0.3439017,0.4045816,-0.0191685,-0
 .0345176,-0.0088133,-0.0632833,-0.6490378,-0.0512147,0.0260409,0.40088
 73,-0.1235269,-0.0214477,0.0258394,0.0031622,-0.1812501,0.0537818,0.04
 74824,0.0051087,0.0259917,0.0354855,-0.0010512,0.005121,-0.0016012,0.1
 534679,0.04545,-0.0576953,0.0049345,-0.0543346,-0.0163236,0.0032808,0.
 0046427,0.0031184,0.1380525,-0.0616623,-0.0041899,0.0110212,-0.0037171
 ,0.0718416,0.0004272,0.0104816,0.0003939,0.1464891,0.0564345,0.0306199
 ,0.0040271,0.062936,-0.0314051,-0.0028937,0.0037885,-0.00102,0.13712,0
 .0455775,0.0665377,0.0043151,0.0162197,-0.0163949,-0.0006234,0.0042948
 ,-0.0032076,0.1288474,0.0528985,-0.037135,0.0054579,-0.0087695,0.03930
 68,0.0008136,0.0051597,0.0016575,0.1533116\Polar=145.4322768,18.072716
 5,107.5636816,-5.5413906,-1.1265687,41.8508833\PG=C01 [X(C9H6O2)]\NIma
 g=0\\0.91390181,-0.09344273,0.11553604,-0.04707875,0.00471175,0.035004
 05,-0.77736992,0.11118696,0.03743207,1.03998086,0.11970355,-0.11407346
 ,-0.00623803,-0.14433700,0.52281013,0.03732164,-0.00580761,-0.07754102
 ,-0.04433621,0.00786097,0.20355366,-0.09009252,-0.07186260,0.00571010,
 -0.09272524,-0.00745736,0.00217456,0.54468638,-0.05135832,0.00827527,0
 .00277999,-0.00362861,-0.20530931,-0.00002778,0.07213721,0.35614044,0.
 00574181,0.00391285,0.01338119,0.00201516,0.00015946,-0.04755058,-0.02
 628518,-0.00416873,0.04741605,0.00787067,0.01153065,-0.00015284,-0.051
 20671,-0.06964721,0.00239197,-0.27420595,0.02431969,0.01196437,0.66905
 914,-0.00806298,-0.00489467,0.00046314,-0.02560049,0.01309244,0.001324
 16,0.03128315,-0.11417440,-0.00135366,0.01817164,0.74482329,-0.0001196
 3,-0.00059335,0.00557321,0.00235617,0.00365275,-0.00920613,0.01187298,
 -0.00102517,-0.04552854,-0.02640340,-0.00282185,0.15855354,-0.00312606
 ,-0.00424488,0.00019881,0.00556871,0.01904423,-0.00027242,-0.06017664,
 -0.05410604,0.00366203,-0.14771593,-0.03838857,0.00421923,0.73660813,0
 .00214899,-0.00130765,-0.00010977,0.00468977,0.00916164,-0.00028109,-0
 .02068285,0.00557028,0.00109114,-0.11133898,-0.30563780,0.00632973,-0.
 04271139,0.73193940,0.00018371,0.00023408,0.00027674,-0.00022837,-0.00
 105711,0.00194252,0.00355331,0.00286948,0.00492629,0.00444321,0.002479
 50,-0.06472226,-0.03167782,0.00016280,0.12800849,-0.00239200,0.0026326
 8,0.00009296,-0.00158058,-0.01204396,0.00022110,0.01697540,0.00543916,
 -0.00062635,-0.03804476,-0.08790206,0.00227021,-0.36666346,0.04039892,
 0.01591848,0.70724990,0.00068192,-0.00098830,-0.00003293,-0.00051929,0
 .00377089,0.00001730,-0.00766302,-0.00852195,0.00045042,-0.02573961,0.
 04564741,0.00122314,-0.03523598,-0.13429693,0.00206708,0.03767347,0.72
 340428,0.00009968,-0.00013524,-0.00047603,0.00018561,0.00062770,0.0017
 9802,-0.00054601,-0.00023895,0.00595652,0.00206492,0.00450009,-0.00009
 633,0.01612167,-0.00192081,-0.05870170,-0.02959063,-0.00318960,0.14040
 114,-0.00145743,-0.00071963,0.00008764,0.00253720,0.00407274,-0.000147
 64,-0.00641774,-0.00277745,0.00030076,0.00344741,-0.00066729,-0.000452
 17,-0.02677946,0.02875056,0.00160962,-0.18206653,0.12543160,0.00570970
 ,0.75752840,-0.00307709,0.00261682,0.00015492,-0.00069779,-0.01245001,
 0.00008089,0.01395075,0.00638470,-0.00078618,-0.01056285,-0.08245567,0
 .00080391,0.08400400,0.04291412,-0.00451953,0.04793069,-0.27964265,-0.
 00173793,0.01604081,0.67984349,0.00009383,0.00002938,0.00013943,-0.000
 13542,-0.00017404,0.00001805,0.00022200,0.00012216,-0.00125454,-0.0003
 9333,0.00024529,-0.00383674,0.00147780,-0.00158089,0.00581312,0.005931
 73,-0.00584844,-0.06321048,-0.03192632,-0.00258029,0.13372091,0.003716
 00,-0.00224727,-0.00020625,-0.00085510,0.01105827,0.00000645,-0.008532
 42,-0.00441717,0.00084936,-0.01799192,0.08300599,0.00068765,-0.0559079
 7,-0.03296745,0.00292132,0.07261241,-0.02862936,-0.00342927,-0.1912358
 9,-0.06582985,0.00682545,0.68201358,0.00096924,0.00009327,-0.00005097,
 -0.00040428,0.00152378,0.00000539,-0.00227134,-0.00829676,0.00017871,0
 .03455139,0.04337199,-0.00195846,-0.03492202,-0.02340000,0.00192020,0.
 03095482,-0.06222632,-0.00145762,-0.13964505,-0.30880323,0.00812071,-0
 .01440466,0.75447575,-0.00021712,0.00011876,-0.00031207,0.00005252,-0.
 00059379,0.00004586,0.00084157,0.00026229,0.00681332,0.00086586,-0.004
 47560,0.00063545,0.00290190,0.00181336,-0.00289223,-0.00360905,0.00170
 788,0.00634099,0.00699726,0.00419626,-0.06276037,-0.02784406,-0.001444
 20,0.13873596,-0.00582149,-0.00049380,0.00035320,0.00585737,-0.0002281
 1,-0.00076799,-0.03101621,0.03413338,0.00206002,-0.17107613,0.04220429
 ,0.00511395,0.06559512,0.02376773,-0.00313826,-0.05554589,0.03554984,0
 .00264939,-0.02632272,-0.08305351,0.00192738,-0.32446602,0.03884177,0.
 01321830,0.72953331,-0.00478371,0.00354898,0.00024149,-0.00112134,-0.0
 2047763,0.00011122,0.02980352,0.00808511,-0.00158539,0.09382102,-0.273
 86588,-0.00392139,-0.02169788,-0.04598065,0.00128660,0.02459533,-0.017
 08076,-0.00128075,-0.02866857,0.02644702,0.00141981,-0.01839804,-0.122
 70567,0.00111404,0.00564754,0.68202951,0.00035960,0.00002671,0.0008530
 7,-0.00073646,0.00001776,-0.00812713,0.00206586,-0.00182755,0.00957924
 ,0.00493238,-0.00123851,-0.06800929,-0.00300724,-0.00109286,0.00747773
 ,0.00267764,-0.00183908,-0.00353061,0.00176263,0.00426917,0.00603702,0
 .01337661,-0.00189483,-0.06001261,-0.03005658,-0.00154647,0.13964680,0
 .01100571,-0.00426890,-0.00042446,-0.02280983,0.03817222,0.00117099,-0
 .02552127,-0.00767799,0.00123967,0.03789107,-0.00464882,-0.00187561,-0
 .00364056,0.00321223,0.00046527,0.00316562,-0.00333432,-0.00022682,-0.
 00470927,0.01169321,0.00062294,-0.03363753,-0.03823681,0.00188072,-0.1
 4433383,-0.05810494,0.00447741,0.82575856,0.01015646,-0.01221535,-0.00
 051784,0.03280055,0.03199228,-0.00181026,-0.02438491,-0.00513345,0.001
 28843,0.00146586,-0.04172522,-0.00002160,0.00176184,-0.00564214,-0.000
 05414,0.00571335,-0.00293484,-0.00029543,0.00249330,0.01039994,-0.0001
 5024,-0.01646249,0.00025381,0.00086456,-0.07663207,-0.23585073,0.00392
 592,-0.06226522,0.66074184,-0.00047004,0.00026234,0.00278610,0.0011878
 3,-0.00213560,-0.00004214,0.00125074,0.00047748,-0.00303731,-0.0018683
 2,0.00036848,0.00300922,0.00045731,-0.00015629,0.00540563,-0.00023447,
 0.00017413,-0.00137912,0.00065394,-0.00059334,0.00760709,0.00181372,0.
 00199744,0.00027223,0.00459374,0.00287775,-0.05856077,-0.03710457,0.00
 255685,0.14008318,-0.05388689,0.05125818,0.00411161,-0.11489150,0.0312
 4175,0.00183402,0.02776759,-0.01838364,-0.00075435,-0.01634410,0.00772
 901,0.00095070,0.00153327,0.00220137,-0.00006006,-0.00454142,0.0025153
 6,0.00022497,-0.00019744,-0.00801757,0.00001116,0.01239881,0.00125483,
 -0.00049024,-0.03672459,-0.03092956,0.00228486,-0.51348674,0.03573431,
 0.02519294,0.86334031,0.02520515,0.00049434,-0.00127972,0.04990946,-0.
 21393111,-0.00269724,-0.01544303,-0.04088882,0.00095216,0.01743442,-0.
 00467036,-0.00093200,-0.00482616,-0.00254546,0.00027343,0.00400861,-0.
 00215030,-0.00020579,-0.00165866,0.00541012,0.00007107,-0.00618691,-0.
 00748148,0.00035738,-0.02936896,0.01652790,0.00159612,0.00724105,-0.13
 237821,-0.00018420,0.06590111,0.63042624,0.00418164,-0.00269409,0.0247
 9026,0.00183627,-0.00165645,-0.07994280,-0.00071059,0.00110472,0.01259
 292,0.00091626,-0.00044436,0.00104977,-0.00003335,-0.00011086,0.000639
 59,0.00023004,-0.00012910,-0.00011214,-0.00001192,0.00041812,-0.000381
 01,-0.00049731,-0.00005021,0.00313757,0.00216234,0.00163968,0.00439926
 ,0.02518426,-0.00170865,-0.05289576,-0.04039161,-0.00414502,0.11501370
 ,0.00011593,0.00017655,-0.00000146,-0.00028226,-0.00042791,-0.00000932
 ,0.00129418,0.00117906,-0.00028289,0.01122277,-0.01400226,-0.00024834,
 -0.13602708,0.12933137,0.00501022,-0.00888658,0.02675288,0.00053162,-0
 .00510774,-0.00134700,0.00068217,-0.00081716,-0.00084938,-0.00000580,-
 0.00127229,-0.00284212,0.00036476,0.00053808,-0.00076041,-0.00001624,0
 .00013381,0.00006398,-0.00001624,0.13876828,0.00017247,0.00023199,-0.0
 0001068,-0.00076040,-0.00100143,0.00003876,0.00178286,0.00260632,-0.00
 011056,0.01752671,-0.01866738,-0.00085173,0.12661758,-0.26993596,-0.00
 544008,-0.00227871,0.00593711,0.00011608,-0.00110349,0.00183507,0.0000
 8205,-0.00125136,0.00011935,0.00006322,-0.00364752,-0.00323804,0.00022
 854,0.00132962,-0.00067874,-0.00007022,-0.00009196,0.00034900,0.000002
 82,-0.13816475,0.28206051,0.00000023,-0.00001117,0.00010371,-0.0000102
 4,0.00002165,-0.00040341,-0.00027551,-0.00007260,-0.00389481,-0.000365
 97,0.00074056,0.00505649,0.00505327,-0.00553262,-0.03644162,0.00059166
 ,-0.00138838,0.00261373,0.00068342,0.00006393,0.00772416,0.00000765,0.
 00004811,-0.00101088,0.00035889,0.00017690,0.00552371,-0.00002236,0.00
 004303,0.00027766,-0.00001585,-0.00000437,-0.00018182,-0.00571331,0.00
 597068,0.02580004,-0.00052789,-0.00019647,0.00002583,0.00035505,0.0007
 4765,-0.00003404,-0.00127978,-0.00212200,0.00008276,-0.00451621,0.0014
 1790,0.00068253,-0.01026765,-0.02830719,0.00083991,-0.12913983,-0.1212
 6212,0.00507519,0.01213209,0.01480258,-0.00044972,-0.00075422,0.003599
 98,0.00038508,-0.00104529,0.00064257,-0.00001259,0.00016499,-0.0000163
 5,-0.00004908,-0.00002391,0.00000380,-0.00000102,0.00097651,0.00034389
 ,-0.00029597,0.13293447,-0.00007544,-0.00002160,0.00000395,0.00024184,
 0.00027540,-0.00001490,-0.00025978,0.00000013,0.00001613,0.00126569,0.
 00166992,-0.00005680,0.00227719,0.00435048,-0.00012910,-0.12154600,-0.
 27268169,0.00646247,-0.01577281,-0.01684669,0.00088028,0.00377763,-0.0
 0338509,-0.00017949,0.00092553,0.00037398,-0.00005320,-0.00011594,-0.0
 0007805,0.00000418,0.00003584,-0.00003352,-0.00000223,-0.00030589,0.00
 046605,0.00001089,0.13015476,0.28604258,0.00002323,0.00000932,-0.00005
 978,-0.00002900,-0.00003603,-0.00024478,0.00006827,0.00010702,0.000176
 14,0.00067643,-0.00003860,0.00839359,0.00073644,0.00144433,0.00408940,
 0.00508724,0.00645325,-0.03971535,-0.00034629,-0.00070594,0.00401234,0
 .00037283,-0.00015630,0.00677344,-0.00001146,-0.00003618,-0.00131388,-
 0.00005116,-0.00000298,-0.00079196,0.00000078,-0.00000119,-0.00004401,
 -0.00029293,-0.00004124,-0.00451920,-0.00599844,-0.00697011,0.02684516
 ,-0.00013768,0.00006594,0.00000760,0.00020656,-0.00021296,-0.00001185,
 0.00009880,0.00003571,-0.00005168,0.00054187,0.00011539,-0.00005821,0.
 00069312,0.00289858,0.00030216,-0.01041661,-0.00293068,0.00067637,-0.3
 4311085,-0.00167444,0.01551366,-0.01036301,0.00266624,0.00067628,0.000
 93281,-0.00276518,0.00035739,-0.00040832,0.00047499,0.00004595,-0.0002
 0833,-0.00022038,0.00000059,-0.00052921,-0.00023500,0.00004131,0.00056
 744,0.00015445,-0.00022215,0.36162631,-0.00006806,0.00013102,0.0000032
 3,0.00002967,-0.00044998,-0.00000036,0.00028468,0.00050295,-0.00001927
 ,-0.00022020,-0.00180538,0.00001572,0.00244877,-0.00449673,-0.00009588
 ,0.02801174,0.00493794,-0.00146682,-0.00140369,-0.05914807,0.00012259,
 -0.02838447,0.00454900,0.00148025,-0.00223197,-0.00451814,0.00014764,-
 0.00111058,0.00063245,0.00006108,-0.00026188,-0.00030156,0.00001351,0.
 00128173,0.00018767,-0.00006976,-0.00052709,0.00080957,0.00001172,0.00
 178185,0.05814254,0.00000671,-0.00000439,0.00000679,-0.00000996,0.0000
 1500,-0.00001740,-0.00005773,-0.00000654,-0.00088112,-0.00005676,0.000
 00070,-0.00055989,0.00031268,-0.00012128,0.00674705,0.00059397,0.00013
 861,0.00236366,0.01552783,0.00013379,-0.03680811,0.00074936,-0.0001254
 0,0.00261842,0.00037091,0.00017375,0.00775580,0.00004856,-0.00002628,0
 .00047968,0.00000041,0.00001122,-0.00021118,0.00003571,0.00001193,0.00
 023082,-0.00023144,-0.00001682,-0.00376044,-0.01702004,-0.00017288,0.0
 2653770,-0.00025976,-0.00037334,0.00001233,0.00089847,0.00138923,-0.00
 005287,-0.00175528,0.00114083,0.00010625,-0.00454906,-0.00197793,0.000
 59497,-0.00084574,-0.00067496,-0.00000867,-0.00084626,-0.00340051,0.00
 044711,0.01230237,-0.01458049,-0.00037290,-0.12788134,0.12005750,0.004
 48564,-0.01117683,0.02757480,0.00070276,0.00159661,0.00188883,-0.00029
 951,0.00013509,-0.00060480,-0.00001107,0.00005988,0.00007420,-0.000043
 89,0.00043471,-0.00078136,-0.00002516,0.00056601,0.00048861,-0.0002721
 0,0.13162492,0.00019268,-0.00005608,-0.00001022,-0.00027827,0.00013974
 ,0.00001435,-0.00007378,0.00020593,0.00000381,-0.00110624,0.00147444,0
 .00007148,-0.00083356,0.00024659,0.00004214,-0.00386809,-0.00330979,0.
 00023776,0.01603975,-0.01683401,-0.00078056,0.11991589,-0.26960208,-0.
 00521896,-0.00152004,0.00279016,0.00009259,-0.00119029,0.00112226,0.00
 004812,0.00036241,-0.00001517,-0.00001942,0.00008466,-0.00003926,-0.00
 000643,0.00080426,-0.00097069,-0.00004152,-0.00015349,0.00081068,-0.00
 001046,-0.12906710,0.28396836,0.00001045,0.00002008,-0.00005101,-0.000
 04484,-0.00007522,0.00000484,0.00010647,-0.00005793,0.00030842,0.00058
 274,0.00011960,0.00650313,-0.00001077,0.00002806,-0.00110376,0.0004408
 9,0.00020180,0.00748566,-0.00042452,0.00083053,0.00424142,0.00450340,-
 0.00525078,-0.03742291,0.00072264,-0.00140639,0.00303618,-0.00029943,-
 0.00010178,-0.00390912,-0.00000984,0.00003102,-0.00004253,-0.00004408,
 -0.00000667,-0.00078720,-0.00002994,0.00004522,-0.00004160,-0.00025925
 ,-0.00003724,-0.00447390,-0.00530708,0.00561076,0.02571368,-0.00160012
 ,0.00211353,-0.00008223,-0.00433249,-0.00386782,0.00100747,0.00052190,
 0.00099817,-0.00014446,-0.00275428,-0.00286121,0.00034503,0.00077914,-
 0.00073403,-0.00006226,0.00021720,-0.00001231,-0.00000638,-0.00009418,
 0.00039229,-0.00000866,0.00170553,-0.00077969,-0.00016416,0.01101891,-
 0.01537271,-0.00035639,-0.11956619,0.11425797,0.00398160,-0.00919422,0
 .02976892,0.00091794,-0.00015564,-0.00024909,0.00000269,-0.00002175,0.
 00003773,0.00000503,-0.00000130,0.00000601,0.00000247,-0.00030078,0.00
 065847,0.00004695,0.12294393,0.00037105,0.00017690,-0.00002436,-0.0017
 2002,0.00052129,0.00011365,0.00044059,0.00111190,-0.00003123,-0.004849
 46,-0.00255740,0.00026681,0.00136800,-0.00070837,-0.00006796,-0.000084
 62,0.00021910,0.00000336,-0.00033697,-0.00005327,0.00001855,0.00164560
 ,0.00129820,-0.00007837,0.01417900,-0.01764978,-0.00071363,0.11578173,
 -0.27613971,-0.00548566,-0.00151073,0.00397030,0.00011138,-0.00021641,
 -0.00031466,0.00001247,-0.00005859,0.00003594,0.00000282,-0.00002375,-
 0.00001689,0.00000052,-0.00111812,0.00007389,0.00004690,-0.12399518,0.
 28938290,-0.00006761,-0.00012886,-0.00304776,0.00096055,0.00024779,0.0
 1407718,-0.00013752,-0.00005189,-0.00210842,0.00034643,0.00014842,0.00
 365489,-0.00006667,0.00004049,-0.00045655,-0.00000616,0.00000070,0.000
 10773,-0.00000533,-0.00001995,-0.00021246,-0.00016086,0.00003538,-0.00
 136270,-0.00037835,0.00086507,0.00414286,0.00400009,-0.00540289,-0.043
 47658,0.00095838,-0.00157383,0.00856084,0.00000213,0.00001334,-0.00013
 098,0.00000476,-0.00000184,0.00006946,0.00000248,-0.00000010,0.0000441
 2,0.00002829,-0.00003319,0.00023407,-0.00507520,0.00585151,0.02663695,
 0.00006163,-0.00111490,-0.00008617,0.01064940,0.01279271,-0.00049585,0
 .00037878,0.00508802,0.00012273,-0.00162790,0.00018423,0.00006391,0.00
 037304,0.00001733,-0.00007178,-0.00009663,0.00012210,0.00001287,-0.000
 44822,0.00002628,-0.00002178,-0.00000373,-0.00138253,0.00002529,-0.004
 13623,0.00259927,0.00080735,-0.01200709,-0.02622601,0.00086445,-0.1558
 0975,-0.14122760,0.00624376,-0.00003148,-0.00006506,0.00000398,0.00001
 127,-0.00001344,0.00000633,-0.00005761,-0.00012512,-0.00000060,-0.0000
 0299,0.00003275,0.00001620,0.00083432,0.00012788,-0.00040539,0.1619131
 9,0.00126682,0.00245248,-0.00008397,-0.01979077,-0.01559466,0.00107255
 ,0.00041593,-0.00655835,0.00000192,0.00337749,0.00037467,-0.00018120,-
 0.00055514,-0.00023081,0.00002849,0.00036466,-0.00008321,-0.00001852,-
 0.00007515,0.00038231,0.00000258,-0.00022438,0.00021548,0.00001241,0.0
 0192690,0.00156464,-0.00009833,0.00352377,0.00763386,-0.00020254,-0.13
 903883,-0.25278189,0.00767016,0.00004591,0.00008241,-0.00000289,-0.000
 02758,-0.00000670,0.00000162,0.00002273,0.00003294,-0.00000148,-0.0000
 3539,-0.00000497,0.00000206,-0.00036105,0.00064967,0.00000987,0.149164
 09,0.26187214,-0.00006938,0.00004945,-0.00142686,-0.00049569,-0.000636
 82,0.00163525,0.00014667,-0.00024597,0.00310523,0.00005605,-0.00001735
 ,-0.00047012,-0.00007286,-0.00000345,-0.00100845,0.00001076,-0.0000067
 9,0.00015432,-0.00001861,-0.00000838,-0.00084984,0.00002394,0.00008284
 ,0.00040052,0.00082187,-0.00012973,0.01110261,0.00091447,0.00141330,0.
 00417197,0.00615210,0.00773096,-0.03637267,0.00000399,0.00000374,0.000
 03960,0.00000616,0.00000136,0.00013147,-0.00000061,0.00000657,-0.00007
 200,0.00001589,-0.00000025,0.00030463,-0.00040943,-0.00002677,-0.00673
 264,-0.00708531,-0.00821272,0.02588698\\-0.00011913,-0.00013927,0.0000
 3508,0.00021966,0.00044914,-0.00007978,-0.00030644,-0.00023010,0.00003
 370,0.00022953,0.00000693,-0.00000309,-0.00007901,-0.00006084,0.000002
 42,0.00002336,0.00000658,-0.00000504,-0.00000215,0.00005798,-0.0000040
 4,-0.00005103,0.00003711,-0.00000011,0.00003008,0.00003069,0.00000002,
 -0.00002630,-0.00010073,0.00000745,0.00004643,-0.00009926,0.00001969,-
 0.00003988,-0.00005862,0.00000307,0.00001944,0.00001529,0.00000067,0.0
 0002679,0.00001890,-0.00000199,0.00002737,0.00004546,-0.00000077,0.000
 03728,-0.00001929,-0.00000579,-0.00003601,0.00004001,-0.00000151\\\@


 MODELS ARE TO BE USED, NOT BELIEVED.

    -- PARAPHRASED BY H. THIEL IN "PRINCIPLES OF ECONOMETRICS"
 Job cpu time:       0 days  0 hours 18 minutes 53.3 seconds.
 File lengths (MBytes):  RWF=    101 Int=      0 D2E=      0 Chk=      5 Scr=      1
 Normal termination of Gaussian 09 at Fri Aug 14 20:02:32 2020.
