 Entering Gaussian System, Link 0=g09
 Initial command:
 /ihome/crc/build/g09/g09-D.01/TAR/g09/l1.exe "/scratch/slurm-4550265/Gau-5900.inp" -scrdir="/scratch/slurm-4550265/"
 Entering Link 1 = /ihome/crc/build/g09/g09-D.01/TAR/g09/l1.exe PID=      5901.
  
 Copyright (c) 1988,1990,1992,1993,1995,1998,2003,2009,2013,
            Gaussian, Inc.  All Rights Reserved.
  
 This is part of the Gaussian(R) 09 program.  It is based on
 the Gaussian(R) 03 system (copyright 2003, Gaussian, Inc.),
 the Gaussian(R) 98 system (copyright 1998, Gaussian, Inc.),
 the Gaussian(R) 94 system (copyright 1995, Gaussian, Inc.),
 the Gaussian 92(TM) system (copyright 1992, Gaussian, Inc.),
 the Gaussian 90(TM) system (copyright 1990, Gaussian, Inc.),
 the Gaussian 88(TM) system (copyright 1988, Gaussian, Inc.),
 the Gaussian 86(TM) system (copyright 1986, Carnegie Mellon
 University), and the Gaussian 82(TM) system (copyright 1983,
 Carnegie Mellon University). Gaussian is a federally registered
 trademark of Gaussian, Inc.
  
 This software contains proprietary and confidential information,
 including trade secrets, belonging to Gaussian, Inc.
  
 This software is provided under written license and may be
 used, copied, transmitted, or stored only in accord with that
 written license.
  
 The following legend is applicable only to US Government
 contracts under FAR:
  
                    RESTRICTED RIGHTS LEGEND
  
 Use, reproduction and disclosure by the US Government is
 subject to restrictions as set forth in subparagraphs (a)
 and (c) of the Commercial Computer Software - Restricted
 Rights clause in FAR 52.227-19.
  
 Gaussian, Inc.
 340 Quinnipiac St., Bldg. 40, Wallingford CT 06492
  
  
 ---------------------------------------------------------------
 Warning -- This program may not be used in any manner that
 competes with the business of Gaussian, Inc. or will provide
 assistance to any competitor of Gaussian, Inc.  The licensee
 of this program is prohibited from giving any competitor of
 Gaussian, Inc. access to this program.  By using this program,
 the user acknowledges that Gaussian, Inc. is engaged in the
 business of creating and licensing software in the field of
 computational chemistry and represents and warrants to the
 licensee that it is not a competitor of Gaussian, Inc. and that
 it will not use this program in any manner prohibited above.
 ---------------------------------------------------------------
  

 Cite this work as:
 Gaussian 09, Revision D.01,
 M. J. Frisch, G. W. Trucks, H. B. Schlegel, G. E. Scuseria, 
 M. A. Robb, J. R. Cheeseman, G. Scalmani, V. Barone, B. Mennucci, 
 G. A. Petersson, H. Nakatsuji, M. Caricato, X. Li, H. P. Hratchian, 
 A. F. Izmaylov, J. Bloino, G. Zheng, J. L. Sonnenberg, M. Hada, 
 M. Ehara, K. Toyota, R. Fukuda, J. Hasegawa, M. Ishida, T. Nakajima, 
 Y. Honda, O. Kitao, H. Nakai, T. Vreven, J. A. Montgomery, Jr., 
 J. E. Peralta, F. Ogliaro, M. Bearpark, J. J. Heyd, E. Brothers, 
 K. N. Kudin, V. N. Staroverov, T. Keith, R. Kobayashi, J. Normand, 
 K. Raghavachari, A. Rendell, J. C. Burant, S. S. Iyengar, J. Tomasi, 
 M. Cossi, N. Rega, J. M. Millam, M. Klene, J. E. Knox, J. B. Cross, 
 V. Bakken, C. Adamo, J. Jaramillo, R. Gomperts, R. E. Stratmann, 
 O. Yazyev, A. J. Austin, R. Cammi, C. Pomelli, J. W. Ochterski, 
 R. L. Martin, K. Morokuma, V. G. Zakrzewski, G. A. Voth, 
 P. Salvador, J. J. Dannenberg, S. Dapprich, A. D. Daniels, 
 O. Farkas, J. B. Foresman, J. V. Ortiz, J. Cioslowski, 
 and D. J. Fox, Gaussian, Inc., Wallingford CT, 2013.
 
 ******************************************
 Gaussian 09:  EM64L-G09RevD.01 24-Apr-2013
                14-Aug-2020 
 ******************************************
 %Nproc=2
 Will use up to    2 processors via shared memory.
 %mem=6GB
 ----------------------------------------------------------------------
 #m062x/6-311g(d,p) charge pop=nbo nosymm nosymm scf=(maxcycle=999) gfi
 nput iop(6/7=3) scrf=(cpcm,solvent=water)
 ----------------------------------------------------------------------
 1/18=10,28=-2,38=1,125=101/1;
 2/12=2,15=-1,17=6,18=5,40=1/2;
 3/5=4,6=6,7=101,11=2,16=1,24=10,25=1,30=1,70=2101,72=1,74=-55/1,2,3;
 4//1;
 5/5=2,7=999,38=5,53=1/2;
 6/7=3,8=2,9=2,10=2,28=1,40=1/1,7;
 99/5=1,9=1/99;
 --------
 coumarin
 --------
 Symbolic Z-matrix:
 Charge =  1 Multiplicity = 2
 O                     0.99463   0.11258   0.04049 
 C                     2.18629  -0.0362   -0.02242 
 O                     2.96635   1.09111  -0.06806 
 C                     4.32876   1.0448   -0.14088 
 C                     5.00574   2.25864  -0.17999 
 C                     6.38947   2.24925  -0.25207 
 C                     7.09607   1.0421   -0.28525 
 C                     6.41101  -0.15849  -0.24676 
 C                     5.01104  -0.17388  -0.17336 
 C                     4.22231  -1.38257  -0.12949 
 C                     2.88233  -1.31885  -0.05739 
 H                     4.43856   3.18013  -0.15351 
 H                     6.92584   3.18941  -0.28292 
 H                     8.17676   1.0496   -0.34146 
 H                     6.94377  -1.10201  -0.27266 
 H                     4.73275  -2.33906  -0.15612 
 H                     2.25313  -2.19705  -0.02383 
 
 Background charge distribution read from input stream:
                          Input orientation:                          
 ---------------------------------------------------------------------
 Center     Atomic      Atomic             Coordinates (Angstroms)
 Number     Number       Type             X           Y           Z
 ---------------------------------------------------------------------
      1          8           0        0.994629    0.112579    0.040491
      2          6           0        2.186287   -0.036202   -0.022417
      3          8           0        2.966347    1.091107   -0.068061
      4          6           0        4.328757    1.044801   -0.140882
      5          6           0        5.005744    2.258636   -0.179986
      6          6           0        6.389465    2.249249   -0.252074
      7          6           0        7.096074    1.042101   -0.285250
      8          6           0        6.411012   -0.158493   -0.246758
      9          6           0        5.011040   -0.173878   -0.173362
     10          6           0        4.222310   -1.382573   -0.129486
     11          6           0        2.882333   -1.318852   -0.057388
     12          1           0        4.438559    3.180130   -0.153510
     13          1           0        6.925843    3.189412   -0.282923
     14          1           0        8.176761    1.049603   -0.341463
     15          1           0        6.943766   -1.102013   -0.272659
     16          1           0        4.732750   -2.339061   -0.156115
     17          1           0        2.253131   -2.197045   -0.023825
 ---------------------------------------------------------------------
                    Distance matrix (angstroms):
                    1          2          3          4          5
     1  O    0.000000
     2  C    1.202556   0.000000
     3  O    2.203854   1.371642   0.000000
     4  C    3.466748   2.402661   1.365140   0.000000
     5  C    4.554472   3.638743   2.352614   1.390409   0.000000
     6  C    5.809923   4.789857   3.618410   2.389472   1.385629
     7  C    6.180433   5.033669   4.135725   2.771082   2.420851
     8  C    5.430764   4.232444   3.668671   2.407262   2.796739
     9  C    4.032288   2.832131   2.406667   1.397048   2.432529
    10  C    3.561221   2.443270   2.774943   2.429734   3.724879
    11  C    2.371076   1.459758   2.411447   2.772358   4.162010
    12  H    4.616076   3.928703   2.557093   2.138188   1.082382
    13  H    6.689604   5.738976   4.486274   3.371111   2.136287
    14  H    7.253063   6.096437   5.217747   3.853231   3.397526
    15  H    6.079928   4.881821   4.546592   3.385919   3.880526
    16  H    4.474678   3.435915   3.859273   3.407927   4.605856
    17  H    2.631032   2.161877   3.364904   3.851168   5.239691
                    6          7          8          9         10
     6  C    0.000000
     7  C    1.399144   0.000000
     8  C    2.407844   1.382830   0.000000
     9  C    2.788870   2.416297   1.401979   0.000000
    10  C    4.231042   3.763220   2.510486   1.443940   0.000000
    11  C    5.006917   4.835456   3.719391   2.419878   1.343427
    12  H    2.163860   3.413343   3.878875   3.402572   4.567888
    13  H    1.082848   2.154049   3.387451   3.871717   5.313726
    14  H    2.154430   1.082174   2.141573   3.398081   4.647375
    15  H    3.396856   2.149554   1.083849   2.146328   2.739623
    16  H    4.879191   4.127255   2.753118   2.183062   1.084494
    17  H    6.077079   5.832196   4.636094   3.423686   2.133587
                   11         12         13         14         15
    11  C    0.000000
    12  H    4.761504   0.000000
    13  H    6.060139   2.490666   0.000000
    14  H    5.807000   4.306812   2.479315   0.000000
    15  H    4.072910   4.962561   4.291475   2.480819   0.000000
    16  H    2.115329   5.527027   5.948929   4.835143   2.536230
    17  H    1.080854   5.805767   7.135495   6.762471   4.823181
                   16         17
    16  H    0.000000
    17  H    2.487203   0.000000
 Stoichiometry    C9H6O2(1+,2)
 Framework group  C1[X(C9H6O2)]
 Deg. of freedom    45
 Full point group                 C1      NOp   1
 Largest Abelian subgroup         C1      NOp   1
 Largest concise Abelian subgroup C1      NOp   1
                         Standard orientation:                         
 ---------------------------------------------------------------------
 Center     Atomic      Atomic             Coordinates (Angstroms)
 Number     Number       Type             X           Y           Z
 ---------------------------------------------------------------------
      1          8           0       -3.216724   -0.818980   -0.001189
      2          6           0       -2.143822   -0.275821   -0.001143
      3          8           0       -1.027547   -1.072898    0.000355
      4          6           0        0.240956   -0.568411    0.001004
      5          6           0        1.289257   -1.481812    0.001221
      6          6           0        2.590224   -1.004893   -0.000082
      7          6           0        2.848213    0.370259   -0.001444
      8          6           0        1.796827    1.268482   -0.000655
      9          6           0        0.472152    0.809374    0.000264
     10          6           0       -0.679675    1.680154    0.001188
     11          6           0       -1.921175    1.166858    0.000031
     12          1           0        1.066145   -2.540949    0.002584
     13          1           0        3.413504   -1.708292    0.000011
     14          1           0        3.869275    0.728770   -0.002585
     15          1           0        1.980109    2.336721   -0.000714
     16          1           0       -0.521709    2.753080    0.003070
     17          1           0       -2.810898    1.780562    0.001995
 ---------------------------------------------------------------------
 Rotational constants (GHZ):      2.8466617      0.8908908      0.6785365
 Standard basis: 6-311G(d,p) (5D, 7F)
 AO basis set in the form of general basis input (Overlap normalization):
      1 0
 S   6 1.00       0.000000000000
      0.8588500000D+04  0.1895150083D-02
      0.1297230000D+04  0.1438590063D-01
      0.2992960000D+03  0.7073200310D-01
      0.8737710000D+02  0.2400010105D+00
      0.2567890000D+02  0.5947970261D+00
      0.3740040000D+01  0.2808020123D+00
 SP   3 1.00       0.000000000000
      0.4211750000D+02  0.1138890124D+00  0.3651139738D-01
      0.9628370000D+01  0.9208111006D+00  0.2371529830D+00
      0.2853320000D+01 -0.3274470358D-02  0.8197019412D+00
 SP   1 1.00       0.000000000000
      0.9056610000D+00  0.1000000000D+01  0.1000000000D+01
 SP   1 1.00       0.000000000000
      0.2556110000D+00  0.1000000000D+01  0.1000000000D+01
 D   1 1.00       0.000000000000
      0.1292000000D+01  0.1000000000D+01
 ****
      2 0
 S   6 1.00       0.000000000000
      0.4563240000D+04  0.1966650249D-02
      0.6820240000D+03  0.1523060193D-01
      0.1549730000D+03  0.7612690966D-01
      0.4445530000D+02  0.2608010331D+00
      0.1302900000D+02  0.6164620782D+00
      0.1827730000D+01  0.2210060280D+00
 SP   3 1.00       0.000000000000
      0.2096420000D+02  0.1146600807D+00  0.4024869267D-01
      0.4803310000D+01  0.9199996477D+00  0.2375939567D+00
      0.1459330000D+01 -0.3030682134D-02  0.8158538515D+00
 SP   1 1.00       0.000000000000
      0.4834560000D+00  0.1000000000D+01  0.1000000000D+01
 SP   1 1.00       0.000000000000
      0.1455850000D+00  0.1000000000D+01  0.1000000000D+01
 D   1 1.00       0.000000000000
      0.6260000000D+00  0.1000000000D+01
 ****
      3 0
 S   6 1.00       0.000000000000
      0.8588500000D+04  0.1895150083D-02
      0.1297230000D+04  0.1438590063D-01
      0.2992960000D+03  0.7073200310D-01
      0.8737710000D+02  0.2400010105D+00
      0.2567890000D+02  0.5947970261D+00
      0.3740040000D+01  0.2808020123D+00
 SP   3 1.00       0.000000000000
      0.4211750000D+02  0.1138890124D+00  0.3651139738D-01
      0.9628370000D+01  0.9208111006D+00  0.2371529830D+00
      0.2853320000D+01 -0.3274470358D-02  0.8197019412D+00
 SP   1 1.00       0.000000000000
      0.9056610000D+00  0.1000000000D+01  0.1000000000D+01
 SP   1 1.00       0.000000000000
      0.2556110000D+00  0.1000000000D+01  0.1000000000D+01
 D   1 1.00       0.000000000000
      0.1292000000D+01  0.1000000000D+01
 ****
      4 0
 S   6 1.00       0.000000000000
      0.4563240000D+04  0.1966650249D-02
      0.6820240000D+03  0.1523060193D-01
      0.1549730000D+03  0.7612690966D-01
      0.4445530000D+02  0.2608010331D+00
      0.1302900000D+02  0.6164620782D+00
      0.1827730000D+01  0.2210060280D+00
 SP   3 1.00       0.000000000000
      0.2096420000D+02  0.1146600807D+00  0.4024869267D-01
      0.4803310000D+01  0.9199996477D+00  0.2375939567D+00
      0.1459330000D+01 -0.3030682134D-02  0.8158538515D+00
 SP   1 1.00       0.000000000000
      0.4834560000D+00  0.1000000000D+01  0.1000000000D+01
 SP   1 1.00       0.000000000000
      0.1455850000D+00  0.1000000000D+01  0.1000000000D+01
 D   1 1.00       0.000000000000
      0.6260000000D+00  0.1000000000D+01
 ****
      5 0
 S   6 1.00       0.000000000000
      0.4563240000D+04  0.1966650249D-02
      0.6820240000D+03  0.1523060193D-01
      0.1549730000D+03  0.7612690966D-01
      0.4445530000D+02  0.2608010331D+00
      0.1302900000D+02  0.6164620782D+00
      0.1827730000D+01  0.2210060280D+00
 SP   3 1.00       0.000000000000
      0.2096420000D+02  0.1146600807D+00  0.4024869267D-01
      0.4803310000D+01  0.9199996477D+00  0.2375939567D+00
      0.1459330000D+01 -0.3030682134D-02  0.8158538515D+00
 SP   1 1.00       0.000000000000
      0.4834560000D+00  0.1000000000D+01  0.1000000000D+01
 SP   1 1.00       0.000000000000
      0.1455850000D+00  0.1000000000D+01  0.1000000000D+01
 D   1 1.00       0.000000000000
      0.6260000000D+00  0.1000000000D+01
 ****
      6 0
 S   6 1.00       0.000000000000
      0.4563240000D+04  0.1966650249D-02
      0.6820240000D+03  0.1523060193D-01
      0.1549730000D+03  0.7612690966D-01
      0.4445530000D+02  0.2608010331D+00
      0.1302900000D+02  0.6164620782D+00
      0.1827730000D+01  0.2210060280D+00
 SP   3 1.00       0.000000000000
      0.2096420000D+02  0.1146600807D+00  0.4024869267D-01
      0.4803310000D+01  0.9199996477D+00  0.2375939567D+00
      0.1459330000D+01 -0.3030682134D-02  0.8158538515D+00
 SP   1 1.00       0.000000000000
      0.4834560000D+00  0.1000000000D+01  0.1000000000D+01
 SP   1 1.00       0.000000000000
      0.1455850000D+00  0.1000000000D+01  0.1000000000D+01
 D   1 1.00       0.000000000000
      0.6260000000D+00  0.1000000000D+01
 ****
      7 0
 S   6 1.00       0.000000000000
      0.4563240000D+04  0.1966650249D-02
      0.6820240000D+03  0.1523060193D-01
      0.1549730000D+03  0.7612690966D-01
      0.4445530000D+02  0.2608010331D+00
      0.1302900000D+02  0.6164620782D+00
      0.1827730000D+01  0.2210060280D+00
 SP   3 1.00       0.000000000000
      0.2096420000D+02  0.1146600807D+00  0.4024869267D-01
      0.4803310000D+01  0.9199996477D+00  0.2375939567D+00
      0.1459330000D+01 -0.3030682134D-02  0.8158538515D+00
 SP   1 1.00       0.000000000000
      0.4834560000D+00  0.1000000000D+01  0.1000000000D+01
 SP   1 1.00       0.000000000000
      0.1455850000D+00  0.1000000000D+01  0.1000000000D+01
 D   1 1.00       0.000000000000
      0.6260000000D+00  0.1000000000D+01
 ****
      8 0
 S   6 1.00       0.000000000000
      0.4563240000D+04  0.1966650249D-02
      0.6820240000D+03  0.1523060193D-01
      0.1549730000D+03  0.7612690966D-01
      0.4445530000D+02  0.2608010331D+00
      0.1302900000D+02  0.6164620782D+00
      0.1827730000D+01  0.2210060280D+00
 SP   3 1.00       0.000000000000
      0.2096420000D+02  0.1146600807D+00  0.4024869267D-01
      0.4803310000D+01  0.9199996477D+00  0.2375939567D+00
      0.1459330000D+01 -0.3030682134D-02  0.8158538515D+00
 SP   1 1.00       0.000000000000
      0.4834560000D+00  0.1000000000D+01  0.1000000000D+01
 SP   1 1.00       0.000000000000
      0.1455850000D+00  0.1000000000D+01  0.1000000000D+01
 D   1 1.00       0.000000000000
      0.6260000000D+00  0.1000000000D+01
 ****
      9 0
 S   6 1.00       0.000000000000
      0.4563240000D+04  0.1966650249D-02
      0.6820240000D+03  0.1523060193D-01
      0.1549730000D+03  0.7612690966D-01
      0.4445530000D+02  0.2608010331D+00
      0.1302900000D+02  0.6164620782D+00
      0.1827730000D+01  0.2210060280D+00
 SP   3 1.00       0.000000000000
      0.2096420000D+02  0.1146600807D+00  0.4024869267D-01
      0.4803310000D+01  0.9199996477D+00  0.2375939567D+00
      0.1459330000D+01 -0.3030682134D-02  0.8158538515D+00
 SP   1 1.00       0.000000000000
      0.4834560000D+00  0.1000000000D+01  0.1000000000D+01
 SP   1 1.00       0.000000000000
      0.1455850000D+00  0.1000000000D+01  0.1000000000D+01
 D   1 1.00       0.000000000000
      0.6260000000D+00  0.1000000000D+01
 ****
     10 0
 S   6 1.00       0.000000000000
      0.4563240000D+04  0.1966650249D-02
      0.6820240000D+03  0.1523060193D-01
      0.1549730000D+03  0.7612690966D-01
      0.4445530000D+02  0.2608010331D+00
      0.1302900000D+02  0.6164620782D+00
      0.1827730000D+01  0.2210060280D+00
 SP   3 1.00       0.000000000000
      0.2096420000D+02  0.1146600807D+00  0.4024869267D-01
      0.4803310000D+01  0.9199996477D+00  0.2375939567D+00
      0.1459330000D+01 -0.3030682134D-02  0.8158538515D+00
 SP   1 1.00       0.000000000000
      0.4834560000D+00  0.1000000000D+01  0.1000000000D+01
 SP   1 1.00       0.000000000000
      0.1455850000D+00  0.1000000000D+01  0.1000000000D+01
 D   1 1.00       0.000000000000
      0.6260000000D+00  0.1000000000D+01
 ****
     11 0
 S   6 1.00       0.000000000000
      0.4563240000D+04  0.1966650249D-02
      0.6820240000D+03  0.1523060193D-01
      0.1549730000D+03  0.7612690966D-01
      0.4445530000D+02  0.2608010331D+00
      0.1302900000D+02  0.6164620782D+00
      0.1827730000D+01  0.2210060280D+00
 SP   3 1.00       0.000000000000
      0.2096420000D+02  0.1146600807D+00  0.4024869267D-01
      0.4803310000D+01  0.9199996477D+00  0.2375939567D+00
      0.1459330000D+01 -0.3030682134D-02  0.8158538515D+00
 SP   1 1.00       0.000000000000
      0.4834560000D+00  0.1000000000D+01  0.1000000000D+01
 SP   1 1.00       0.000000000000
      0.1455850000D+00  0.1000000000D+01  0.1000000000D+01
 D   1 1.00       0.000000000000
      0.6260000000D+00  0.1000000000D+01
 ****
     12 0
 S   3 1.00       0.000000000000
      0.3386500000D+02  0.2549381454D-01
      0.5094790000D+01  0.1903731086D+00
      0.1158790000D+01  0.8521614860D+00
 S   1 1.00       0.000000000000
      0.3258400000D+00  0.1000000000D+01
 S   1 1.00       0.000000000000
      0.1027410000D+00  0.1000000000D+01
 P   1 1.00       0.000000000000
      0.7500000000D+00  0.1000000000D+01
 ****
     13 0
 S   3 1.00       0.000000000000
      0.3386500000D+02  0.2549381454D-01
      0.5094790000D+01  0.1903731086D+00
      0.1158790000D+01  0.8521614860D+00
 S   1 1.00       0.000000000000
      0.3258400000D+00  0.1000000000D+01
 S   1 1.00       0.000000000000
      0.1027410000D+00  0.1000000000D+01
 P   1 1.00       0.000000000000
      0.7500000000D+00  0.1000000000D+01
 ****
     14 0
 S   3 1.00       0.000000000000
      0.3386500000D+02  0.2549381454D-01
      0.5094790000D+01  0.1903731086D+00
      0.1158790000D+01  0.8521614860D+00
 S   1 1.00       0.000000000000
      0.3258400000D+00  0.1000000000D+01
 S   1 1.00       0.000000000000
      0.1027410000D+00  0.1000000000D+01
 P   1 1.00       0.000000000000
      0.7500000000D+00  0.1000000000D+01
 ****
     15 0
 S   3 1.00       0.000000000000
      0.3386500000D+02  0.2549381454D-01
      0.5094790000D+01  0.1903731086D+00
      0.1158790000D+01  0.8521614860D+00
 S   1 1.00       0.000000000000
      0.3258400000D+00  0.1000000000D+01
 S   1 1.00       0.000000000000
      0.1027410000D+00  0.1000000000D+01
 P   1 1.00       0.000000000000
      0.7500000000D+00  0.1000000000D+01
 ****
     16 0
 S   3 1.00       0.000000000000
      0.3386500000D+02  0.2549381454D-01
      0.5094790000D+01  0.1903731086D+00
      0.1158790000D+01  0.8521614860D+00
 S   1 1.00       0.000000000000
      0.3258400000D+00  0.1000000000D+01
 S   1 1.00       0.000000000000
      0.1027410000D+00  0.1000000000D+01
 P   1 1.00       0.000000000000
      0.7500000000D+00  0.1000000000D+01
 ****
     17 0
 S   3 1.00       0.000000000000
      0.3386500000D+02  0.2549381454D-01
      0.5094790000D+01  0.1903731086D+00
      0.1158790000D+01  0.8521614860D+00
 S   1 1.00       0.000000000000
      0.3258400000D+00  0.1000000000D+01
 S   1 1.00       0.000000000000
      0.1027410000D+00  0.1000000000D+01
 P   1 1.00       0.000000000000
      0.7500000000D+00  0.1000000000D+01
 ****

 There are   245 symmetry adapted cartesian basis functions of A   symmetry.
 There are   234 symmetry adapted basis functions of A   symmetry.
   234 basis functions,   400 primitive gaussians,   245 cartesian basis functions
    38 alpha electrons       37 beta electrons
       nuclear repulsion energy       555.2326823620 Hartrees.
 NAtoms=   17 NActive=   17 NUniq=   17 SFac= 1.00D+00 NAtFMM=   60 NAOKFM=F Big=F
 Integral buffers will be    131072 words long.
 Raffenetti 2 integral format.
 Two-electron integral symmetry is turned on.
 ------------------------------------------------------------------------------
 Polarizable Continuum Model (PCM)
 =================================
 Model                : C-PCM.
 Atomic radii         : UFF (Universal Force Field).
 Polarization charges : Total charges.
 Charge compensation  : None.
 Solution method      : On-the-fly selection.
 Cavity type          : Scaled VdW (van der Waals Surface) (Alpha=1.100).
 Cavity algorithm     : GePol (No added spheres)
                        Default sphere list used, NSphG=   17.
                        Lebedev-Laikov grids with approx.  5.0 points / Ang**2.
                        Smoothing algorithm: Karplus/York (Gamma=1.0000).
                        Polarization charges: spherical gaussians, with
                                              point-specific exponents (IZeta= 3).
                        Self-potential: point-specific (ISelfS= 7).
                        Self-field    : sphere-specific E.n sum rule (ISelfD= 2).
 Solvent              : Water, Eps=  78.355300 Eps(inf)=   1.777849
 ------------------------------------------------------------------------------
 Spheres list:
 ISph  on   Nord     Re0    Alpha      Xe            Ye            Ze
    1   O      1    1.7500  1.100     -3.216724     -0.818980     -0.001189
    2   C      2    1.9255  1.100     -2.143822     -0.275821     -0.001143
    3   O      3    1.7500  1.100     -1.027547     -1.072898      0.000355
    4   C      4    1.9255  1.100      0.240956     -0.568411      0.001004
    5   C      5    1.9255  1.100      1.289257     -1.481812      0.001221
    6   C      6    1.9255  1.100      2.590224     -1.004893     -0.000082
    7   C      7    1.9255  1.100      2.848213      0.370259     -0.001444
    8   C      8    1.9255  1.100      1.796827      1.268482     -0.000655
    9   C      9    1.9255  1.100      0.472152      0.809374      0.000264
   10   C     10    1.9255  1.100     -0.679675      1.680154      0.001188
   11   C     11    1.9255  1.100     -1.921175      1.166858      0.000031
   12   H     12    1.4430  1.100      1.066145     -2.540949      0.002584
   13   H     13    1.4430  1.100      3.413504     -1.708292      0.000011
   14   H     14    1.4430  1.100      3.869275      0.728770     -0.002585
   15   H     15    1.4430  1.100      1.980109      2.336721     -0.000714
   16   H     16    1.4430  1.100     -0.521709      2.753080      0.003070
   17   H     17    1.4430  1.100     -2.810898      1.780562      0.001995
 ------------------------------------------------------------------------------
 One-electron integrals computed using PRISM.
 NBasis=   234 RedAO= T EigKep=  1.73D-04  NBF=   234
 NBsUse=   234 1.00D-06 EigRej= -1.00D+00 NBFU=   234
 ExpMin= 1.03D-01 ExpMax= 8.59D+03 ExpMxC= 1.30D+03 IAcc=1 IRadAn=         1 AccDes= 0.00D+00
 Harris functional with IExCor= 1009 and IRadAn=       1 diagonalized for initial guess.
 HarFok:  IExCor= 1009 AccDes= 0.00D+00 IRadAn=         1 IDoV= 1 UseB2=F ITyADJ=14
 ICtDFT=  3500011 ScaDFX=  1.000000  1.000000  1.000000  1.000000
 FoFCou: FMM=F IPFlag=           0 FMFlag=      100000 FMFlg1=           0
         NFxFlg=           0 DoJE=T BraDBF=F KetDBF=T FulRan=T
         wScrn=  0.000000 ICntrl=     500 IOpCl=  0 I1Cent=   200000004 NGrid=           0
         NMat0=    1 NMatS0=      1 NMatT0=    0 NMatD0=    1 NMtDS0=    0 NMtDT0=    0
 Petite list used in FoFCou.
 Initial guess <Sx>= 0.0000 <Sy>= 0.0000 <Sz>= 0.5000 <S**2>= 0.7500 S= 0.5000
 Keep R1 and R2 ints in memory in canonical form, NReq=764633749.
 Requested convergence on RMS density matrix=1.00D-08 within 999 cycles.
 Requested convergence on MAX density matrix=1.00D-06.
 Requested convergence on             energy=1.00D-06.
 No special actions if energy rises.
 Inv3:  Mode=1 IEnd=     7059468.
 Iteration    1 A*A^-1 deviation from unit magnitude is 6.22D-15 for    207.
 Iteration    1 A*A^-1 deviation from orthogonality  is 4.11D-15 for   1059   1019.
 Iteration    1 A^-1*A deviation from unit magnitude is 6.22D-15 for    207.
 Iteration    1 A^-1*A deviation from orthogonality  is 3.36D-15 for   1319   1265.
 Error on total polarization charges =  0.00603
 SCF Done:  E(UM062X) =  -496.698170224     A.U. after   23 cycles
            NFock= 23  Conv=0.79D-08     -V/T= 2.0035
 <Sx>= 0.0000 <Sy>= 0.0000 <Sz>= 0.5000 <S**2>= 0.7850 S= 0.5174
 <L.S>= 0.000000000000E+00
 Annihilation of the first spin contaminant:
 S**2 before annihilation     0.7850,   after     0.7508

 **********************************************************************

            Population analysis using the SCF density.

 **********************************************************************

 Orbital symmetries:
 Alpha Orbitals:
       Occupied  (A) (A) (A) (A) (A) (A) (A) (A) (A) (A) (A) (A)
                 (A) (A) (A) (A) (A) (A) (A) (A) (A) (A) (A) (A)
                 (A) (A) (A) (A) (A) (A) (A) (A) (A) (A) (A) (A)
                 (A) (A)
       Virtual   (A) (A) (A) (A) (A) (A) (A) (A) (A) (A) (A) (A)
                 (A) (A) (A) (A) (A) (A) (A) (A) (A) (A) (A) (A)
                 (A) (A) (A) (A) (A) (A) (A) (A) (A) (A) (A) (A)
                 (A) (A) (A) (A) (A) (A) (A) (A) (A) (A) (A) (A)
                 (A) (A) (A) (A) (A) (A) (A) (A) (A) (A) (A) (A)
                 (A) (A) (A) (A) (A) (A) (A) (A) (A) (A) (A) (A)
                 (A) (A) (A) (A) (A) (A) (A) (A) (A) (A) (A) (A)
                 (A) (A) (A) (A) (A) (A) (A) (A) (A) (A) (A) (A)
                 (A) (A) (A) (A) (A) (A) (A) (A) (A) (A) (A) (A)
                 (A) (A) (A) (A) (A) (A) (A) (A) (A) (A) (A) (A)
                 (A) (A) (A) (A) (A) (A) (A) (A) (A) (A) (A) (A)
                 (A) (A) (A) (A) (A) (A) (A) (A) (A) (A) (A) (A)
                 (A) (A) (A) (A) (A) (A) (A) (A) (A) (A) (A) (A)
                 (A) (A) (A) (A) (A) (A) (A) (A) (A) (A) (A) (A)
                 (A) (A) (A) (A) (A) (A) (A) (A) (A) (A) (A) (A)
                 (A) (A) (A) (A) (A) (A) (A) (A) (A) (A) (A) (A)
                 (A) (A) (A) (A)
 Beta  Orbitals:
       Occupied  (A) (A) (A) (A) (A) (A) (A) (A) (A) (A) (A) (A)
                 (A) (A) (A) (A) (A) (A) (A) (A) (A) (A) (A) (A)
                 (A) (A) (A) (A) (A) (A) (A) (A) (A) (A) (A) (A)
                 (A)
       Virtual   (A) (A) (A) (A) (A) (A) (A) (A) (A) (A) (A) (A)
                 (A) (A) (A) (A) (A) (A) (A) (A) (A) (A) (A) (A)
                 (A) (A) (A) (A) (A) (A) (A) (A) (A) (A) (A) (A)
                 (A) (A) (A) (A) (A) (A) (A) (A) (A) (A) (A) (A)
                 (A) (A) (A) (A) (A) (A) (A) (A) (A) (A) (A) (A)
                 (A) (A) (A) (A) (A) (A) (A) (A) (A) (A) (A) (A)
                 (A) (A) (A) (A) (A) (A) (A) (A) (A) (A) (A) (A)
                 (A) (A) (A) (A) (A) (A) (A) (A) (A) (A) (A) (A)
                 (A) (A) (A) (A) (A) (A) (A) (A) (A) (A) (A) (A)
                 (A) (A) (A) (A) (A) (A) (A) (A) (A) (A) (A) (A)
                 (A) (A) (A) (A) (A) (A) (A) (A) (A) (A) (A) (A)
                 (A) (A) (A) (A) (A) (A) (A) (A) (A) (A) (A) (A)
                 (A) (A) (A) (A) (A) (A) (A) (A) (A) (A) (A) (A)
                 (A) (A) (A) (A) (A) (A) (A) (A) (A) (A) (A) (A)
                 (A) (A) (A) (A) (A) (A) (A) (A) (A) (A) (A) (A)
                 (A) (A) (A) (A) (A) (A) (A) (A) (A) (A) (A) (A)
                 (A) (A) (A) (A) (A)
 The electronic state is 2-A.
 Alpha  occ. eigenvalues --  -19.75804 -19.68277 -10.73940 -10.70888 -10.64923
 Alpha  occ. eigenvalues --  -10.63328 -10.63109 -10.62262 -10.61509 -10.60611
 Alpha  occ. eigenvalues --  -10.60232  -1.31908  -1.22721  -1.05073  -0.99319
 Alpha  occ. eigenvalues --   -0.93034  -0.91216  -0.80867  -0.80095  -0.77234
 Alpha  occ. eigenvalues --   -0.70138  -0.66620  -0.63939  -0.62912  -0.60360
 Alpha  occ. eigenvalues --   -0.58908  -0.57547  -0.56497  -0.54426  -0.53433
 Alpha  occ. eigenvalues --   -0.51337  -0.48755  -0.48723  -0.46616  -0.44239
 Alpha  occ. eigenvalues --   -0.42359  -0.36452  -0.36084
 Alpha virt. eigenvalues --   -0.09102  -0.03842  -0.01784   0.06779   0.07700
 Alpha virt. eigenvalues --    0.07754   0.10235   0.12103   0.13430   0.13792
 Alpha virt. eigenvalues --    0.16391   0.16722   0.19853   0.24036   0.24545
 Alpha virt. eigenvalues --    0.25893   0.27276   0.28233   0.29574   0.33603
 Alpha virt. eigenvalues --    0.35112   0.35391   0.36313   0.38102   0.39453
 Alpha virt. eigenvalues --    0.39465   0.41980   0.42866   0.42954   0.43211
 Alpha virt. eigenvalues --    0.45122   0.45655   0.46393   0.47150   0.47959
 Alpha virt. eigenvalues --    0.50549   0.53450   0.53754   0.53866   0.57520
 Alpha virt. eigenvalues --    0.58682   0.59666   0.60671   0.61677   0.62379
 Alpha virt. eigenvalues --    0.64535   0.64574   0.65248   0.66455   0.71567
 Alpha virt. eigenvalues --    0.73028   0.74651   0.75738   0.77808   0.78191
 Alpha virt. eigenvalues --    0.80613   0.82337   0.84301   0.87126   0.88141
 Alpha virt. eigenvalues --    0.90508   0.92376   0.92996   0.95333   0.96003
 Alpha virt. eigenvalues --    0.97117   0.99589   1.03520   1.04565   1.04883
 Alpha virt. eigenvalues --    1.06933   1.08361   1.08596   1.12204   1.14505
 Alpha virt. eigenvalues --    1.17586   1.22630   1.24203   1.27068   1.31004
 Alpha virt. eigenvalues --    1.34752   1.36524   1.42008   1.43527   1.46015
 Alpha virt. eigenvalues --    1.47396   1.47734   1.51907   1.54825   1.55105
 Alpha virt. eigenvalues --    1.55624   1.58076   1.58572   1.58844   1.61045
 Alpha virt. eigenvalues --    1.62129   1.68533   1.71161   1.72062   1.72928
 Alpha virt. eigenvalues --    1.73006   1.74567   1.77507   1.79541   1.83734
 Alpha virt. eigenvalues --    1.86255   1.86366   1.87303   1.89066   1.89804
 Alpha virt. eigenvalues --    1.90497   1.92244   1.95150   1.96645   1.98967
 Alpha virt. eigenvalues --    2.02049   2.07576   2.07889   2.11446   2.12444
 Alpha virt. eigenvalues --    2.22903   2.24351   2.27994   2.30831   2.31247
 Alpha virt. eigenvalues --    2.36054   2.39595   2.47878   2.50528   2.51036
 Alpha virt. eigenvalues --    2.55821   2.55880   2.59548   2.60254   2.62021
 Alpha virt. eigenvalues --    2.63488   2.64323   2.65213   2.66307   2.67295
 Alpha virt. eigenvalues --    2.68184   2.73077   2.75402   2.78325   2.79298
 Alpha virt. eigenvalues --    2.85335   2.86563   2.87433   2.90092   2.93170
 Alpha virt. eigenvalues --    2.93304   2.95860   3.03778   3.04914   3.08289
 Alpha virt. eigenvalues --    3.13388   3.17018   3.21375   3.25471   3.31886
 Alpha virt. eigenvalues --    3.34468   3.36120   3.44928   3.46844   3.47320
 Alpha virt. eigenvalues --    3.51278   3.52780   3.58357   3.63338   3.69446
 Alpha virt. eigenvalues --    3.95045   3.98420   3.99904   4.01558   4.09125
 Alpha virt. eigenvalues --    4.15093   4.18593   4.46231   4.78091   4.89600
 Alpha virt. eigenvalues --    4.94701   5.06835   5.30072   5.64289   5.91975
 Alpha virt. eigenvalues --   23.48339  23.74744  23.86367  23.91004  23.94235
 Alpha virt. eigenvalues --   24.04703  24.12001  24.19767  24.22065  49.90739
 Alpha virt. eigenvalues --   50.05185
  Beta  occ. eigenvalues --  -19.75669 -19.67900 -10.74021 -10.70760 -10.64787
  Beta  occ. eigenvalues --  -10.63228 -10.63111 -10.62188 -10.61418 -10.60678
  Beta  occ. eigenvalues --  -10.60281  -1.31401  -1.21720  -1.04416  -0.98787
  Beta  occ. eigenvalues --   -0.92221  -0.90761  -0.80459  -0.79783  -0.76836
  Beta  occ. eigenvalues --   -0.69791  -0.66247  -0.63472  -0.61250  -0.59934
  Beta  occ. eigenvalues --   -0.58396  -0.57348  -0.56235  -0.54272  -0.50998
  Beta  occ. eigenvalues --   -0.50453  -0.48498  -0.46627  -0.46322  -0.41649
  Beta  occ. eigenvalues --   -0.41119  -0.35420
  Beta virt. eigenvalues --   -0.21966  -0.07162  -0.01776  -0.00191   0.06825
  Beta virt. eigenvalues --    0.07755   0.09055   0.10277   0.12142   0.13472
  Beta virt. eigenvalues --    0.14242   0.16834   0.17680   0.20227   0.24180
  Beta virt. eigenvalues --    0.24882   0.26208   0.27585   0.28541   0.29975
  Beta virt. eigenvalues --    0.33820   0.35128   0.35529   0.36640   0.38418
  Beta virt. eigenvalues --    0.39507   0.39969   0.42440   0.42718   0.43346
  Beta virt. eigenvalues --    0.43713   0.45463   0.45822   0.46600   0.47126
  Beta virt. eigenvalues --    0.48242   0.50903   0.53559   0.53720   0.54214
  Beta virt. eigenvalues --    0.57575   0.58981   0.59943   0.61089   0.62115
  Beta virt. eigenvalues --    0.62674   0.64559   0.64847   0.65426   0.66618
  Beta virt. eigenvalues --    0.71637   0.72997   0.74854   0.76117   0.78081
  Beta virt. eigenvalues --    0.78543   0.81143   0.82530   0.84784   0.88181
  Beta virt. eigenvalues --    0.88408   0.90733   0.92551   0.93961   0.95953
  Beta virt. eigenvalues --    0.96227   0.98150   0.99583   1.03493   1.05299
  Beta virt. eigenvalues --    1.05676   1.07138   1.08373   1.08823   1.13113
  Beta virt. eigenvalues --    1.15049   1.17777   1.23546   1.24346   1.27109
  Beta virt. eigenvalues --    1.31191   1.35003   1.36912   1.42607   1.43913
  Beta virt. eigenvalues --    1.46354   1.47716   1.48300   1.52222   1.55118
  Beta virt. eigenvalues --    1.55582   1.56084   1.58437   1.58939   1.59222
  Beta virt. eigenvalues --    1.61414   1.62576   1.68712   1.71320   1.72447
  Beta virt. eigenvalues --    1.73312   1.73334   1.74954   1.77741   1.79913
  Beta virt. eigenvalues --    1.84336   1.86621   1.86969   1.88443   1.89741
  Beta virt. eigenvalues --    1.90464   1.91002   1.92896   1.95819   1.97436
  Beta virt. eigenvalues --    1.99333   2.02840   2.08062   2.08599   2.11996
  Beta virt. eigenvalues --    2.13046   2.23517   2.24909   2.28299   2.31310
  Beta virt. eigenvalues --    2.32027   2.36398   2.39979   2.48417   2.51340
  Beta virt. eigenvalues --    2.51752   2.56333   2.56784   2.59889   2.60724
  Beta virt. eigenvalues --    2.62179   2.63544   2.65175   2.65229   2.66390
  Beta virt. eigenvalues --    2.67938   2.69373   2.74920   2.76450   2.78843
  Beta virt. eigenvalues --    2.81107   2.85834   2.88036   2.88071   2.90738
  Beta virt. eigenvalues --    2.93629   2.94810   2.96385   3.05310   3.05672
  Beta virt. eigenvalues --    3.08704   3.13784   3.17465   3.21957   3.25745
  Beta virt. eigenvalues --    3.32463   3.35682   3.36363   3.45462   3.47238
  Beta virt. eigenvalues --    3.47823   3.51744   3.53142   3.58781   3.63894
  Beta virt. eigenvalues --    3.69903   3.95715   3.99144   4.00404   4.02369
  Beta virt. eigenvalues --    4.10012   4.15476   4.19230   4.47210   4.79848
  Beta virt. eigenvalues --    4.90703   4.96286   5.07474   5.30352   5.64719
  Beta virt. eigenvalues --    5.92155  23.48515  23.74884  23.86361  23.91402
  Beta virt. eigenvalues --   23.94596  24.05278  24.12125  24.20078  24.22389
  Beta virt. eigenvalues --   49.90563  50.04762
     Alpha Molecular Orbital Coefficients:
                           1         2         3         4         5
                           O         O         O         O         O
     Eigenvalues --   -19.75804 -19.68277 -10.73940 -10.70888 -10.64923
   1 1   O  1S         -0.00008   0.55284  -0.00013   0.00000   0.00000
   2        2S         -0.00004   0.46949  -0.00016   0.00001   0.00001
   3        2PX         0.00001   0.00130   0.00052   0.00000   0.00000
   4        2PY         0.00001   0.00061   0.00028  -0.00001   0.00000
   5        2PZ         0.00000   0.00000   0.00000   0.00000   0.00000
   6        3S         -0.00019   0.00912   0.00070  -0.00007  -0.00009
   7        3PX        -0.00008   0.00022  -0.00111   0.00000   0.00000
   8        3PY        -0.00005   0.00014  -0.00060   0.00004   0.00000
   9        3PZ         0.00000   0.00000   0.00000   0.00000   0.00000
  10        4S          0.00053  -0.00621  -0.00530   0.00037   0.00034
  11        4PX        -0.00005  -0.00098  -0.00200   0.00020   0.00002
  12        4PY         0.00030  -0.00067  -0.00047  -0.00044  -0.00010
  13        4PZ         0.00000   0.00000   0.00000   0.00000   0.00000
  14        5D 0        0.00000  -0.00010   0.00043   0.00001   0.00001
  15        5D+1        0.00000   0.00000   0.00000   0.00000   0.00000
  16        5D-1        0.00000   0.00000   0.00000   0.00000   0.00000
  17        5D+2       -0.00005   0.00011  -0.00042   0.00003   0.00001
  18        5D-2        0.00000   0.00013  -0.00049  -0.00003  -0.00002
  19 2   C  1S          0.00001  -0.00001   0.56413   0.00015   0.00003
  20        2S         -0.00005   0.00001   0.46389   0.00016   0.00004
  21        2PX         0.00007  -0.00026   0.00083  -0.00004  -0.00003
  22        2PY        -0.00012  -0.00013  -0.00075   0.00000   0.00003
  23        2PZ         0.00000   0.00000   0.00000   0.00000   0.00000
  24        3S          0.00033   0.00056   0.01199  -0.00034  -0.00016
  25        3PX         0.00018   0.00056  -0.00144   0.00003   0.00010
  26        3PY         0.00013   0.00033   0.00003   0.00002  -0.00023
  27        3PZ         0.00000   0.00000   0.00000   0.00000   0.00000
  28        4S          0.00097   0.00120  -0.00262   0.00150   0.00186
  29        4PX         0.00170  -0.00455  -0.00231  -0.00055   0.00073
  30        4PY        -0.00076  -0.00116  -0.00434   0.00297   0.00108
  31        4PZ         0.00000   0.00000   0.00000   0.00000   0.00000
  32        5D 0       -0.00004   0.00017  -0.00111  -0.00004  -0.00004
  33        5D+1        0.00000   0.00000   0.00000   0.00000   0.00000
  34        5D-1        0.00000   0.00000   0.00000   0.00000   0.00000
  35        5D+2        0.00002  -0.00035   0.00022   0.00015   0.00015
  36        5D-2        0.00021  -0.00043   0.00091   0.00001  -0.00006
  37 3   O  1S          0.55288   0.00008  -0.00005  -0.00006   0.00000
  38        2S          0.46948   0.00009  -0.00013  -0.00015   0.00000
  39        2PX         0.00030  -0.00006  -0.00012   0.00016   0.00002
  40        2PY         0.00142   0.00002   0.00014   0.00011   0.00001
  41        2PZ         0.00000   0.00000   0.00000   0.00000   0.00000
  42        3S          0.00908  -0.00017   0.00079   0.00103   0.00013
  43        3PX        -0.00006   0.00023  -0.00033   0.00039  -0.00011
  44        3PY        -0.00025  -0.00010   0.00009  -0.00003  -0.00005
  45        3PZ         0.00000   0.00000   0.00000   0.00000   0.00000
  46        4S         -0.00705   0.00053  -0.00203  -0.00349  -0.00116
  47        4PX        -0.00037  -0.00024   0.00197  -0.00291  -0.00023
  48        4PY        -0.00086   0.00043  -0.00113  -0.00028  -0.00083
  49        4PZ         0.00000   0.00000   0.00000   0.00000   0.00000
  50        5D 0       -0.00003   0.00000   0.00020   0.00020   0.00007
  51        5D+1        0.00000   0.00000   0.00000   0.00000   0.00000
  52        5D-1        0.00000   0.00000   0.00000   0.00000   0.00000
  53        5D+2        0.00006  -0.00006  -0.00003  -0.00018  -0.00005
  54        5D-2       -0.00002   0.00005   0.00021  -0.00014  -0.00009
  55 4   C  1S          0.00001   0.00000  -0.00016   0.56414  -0.00374
  56        2S         -0.00007   0.00001  -0.00010   0.46375  -0.00297
  57        2PX        -0.00013  -0.00006  -0.00004  -0.00135   0.00010
  58        2PY        -0.00008   0.00000   0.00003  -0.00017   0.00075
  59        2PZ         0.00000   0.00000   0.00000   0.00000   0.00000
  60        3S          0.00061  -0.00011  -0.00040   0.01262  -0.00022
  61        3PX         0.00001   0.00031   0.00040   0.00190  -0.00016
  62        3PY         0.00007  -0.00003  -0.00018   0.00040  -0.00244
  63        3PZ         0.00000   0.00000   0.00000   0.00000   0.00000
  64        4S         -0.00168  -0.00065   0.00082  -0.01239   0.00297
  65        4PX        -0.00449  -0.00222  -0.00468  -0.00829  -0.00079
  66        4PY        -0.00150   0.00098   0.00758  -0.00593   0.00346
  67        4PZ         0.00000   0.00000  -0.00001   0.00000   0.00000
  68        5D 0       -0.00001  -0.00003  -0.00008  -0.00114   0.00044
  69        5D+1        0.00000   0.00000   0.00000   0.00000   0.00000
  70        5D-1        0.00000   0.00000   0.00000   0.00000   0.00000
  71        5D+2       -0.00004  -0.00005   0.00008  -0.00049   0.00108
  72        5D-2       -0.00020   0.00000  -0.00005  -0.00038  -0.00050
  73 5   C  1S          0.00000   0.00000  -0.00001   0.00203  -0.00013
  74        2S          0.00002   0.00001   0.00002   0.00180  -0.00005
  75        2PX        -0.00001  -0.00001   0.00002  -0.00057  -0.00007
  76        2PY        -0.00003  -0.00001  -0.00001   0.00043   0.00007
  77        2PZ         0.00000   0.00000   0.00000   0.00000   0.00000
  78        3S         -0.00013  -0.00009  -0.00029  -0.00026  -0.00023
  79        3PX         0.00011   0.00005  -0.00005   0.00211   0.00052
  80        3PY         0.00010   0.00003   0.00005  -0.00149  -0.00061
  81        3PZ         0.00000   0.00000   0.00000   0.00000   0.00000
  82        4S          0.00276   0.00184   0.00747   0.00581   0.00026
  83        4PX         0.00082  -0.00062  -0.00239   0.00174  -0.00148
  84        4PY         0.00177   0.00085   0.00256   0.00403  -0.00047
  85        4PZ         0.00000   0.00000   0.00000   0.00000   0.00000
  86        5D 0       -0.00002  -0.00001  -0.00004   0.00044   0.00001
  87        5D+1        0.00000   0.00000   0.00000   0.00000   0.00000
  88        5D-1        0.00000   0.00000   0.00000   0.00000   0.00000
  89        5D+2       -0.00003   0.00000   0.00010  -0.00015  -0.00001
  90        5D-2        0.00010   0.00003   0.00006   0.00144   0.00041
  91 6   C  1S          0.00000   0.00000   0.00000  -0.00003  -0.00019
  92        2S          0.00001   0.00001   0.00000   0.00004  -0.00010
  93        2PX        -0.00003  -0.00001  -0.00002  -0.00013  -0.00002
  94        2PY        -0.00001  -0.00001   0.00000  -0.00006   0.00002
  95        2PZ         0.00000   0.00000   0.00000   0.00000   0.00000
  96        3S         -0.00006  -0.00004   0.00008  -0.00028  -0.00036
  97        3PX         0.00017   0.00007   0.00015   0.00099   0.00022
  98        3PY         0.00005   0.00004   0.00002   0.00029  -0.00019
  99        3PZ         0.00000   0.00000   0.00000   0.00000   0.00000
 100        4S         -0.00186  -0.00022  -0.00212  -0.00467   0.00201
 101        4PX         0.00056  -0.00011   0.00065   0.00162  -0.00106
 102        4PY        -0.00014  -0.00030  -0.00162  -0.00048   0.00048
 103        4PZ         0.00000   0.00000   0.00000   0.00000   0.00000
 104        5D 0       -0.00001  -0.00001   0.00002   0.00002  -0.00001
 105        5D+1        0.00000   0.00000   0.00000   0.00000   0.00000
 106        5D-1        0.00000   0.00000   0.00000   0.00000   0.00000
 107        5D+2       -0.00005  -0.00002  -0.00002  -0.00037   0.00002
 108        5D-2       -0.00001  -0.00001  -0.00005  -0.00029  -0.00011
 109 7   C  1S          0.00000   0.00000   0.00000  -0.00006  -0.00006
 110        2S          0.00001   0.00001   0.00001   0.00001   0.00001
 111        2PX         0.00000  -0.00001   0.00000  -0.00002  -0.00009
 112        2PY        -0.00001   0.00000   0.00001  -0.00003   0.00008
 113        2PZ         0.00000   0.00000   0.00000   0.00000   0.00000
 114        3S         -0.00009  -0.00003  -0.00014  -0.00043  -0.00023
 115        3PX         0.00002   0.00004   0.00003   0.00025   0.00073
 116        3PY         0.00006   0.00000  -0.00006   0.00022  -0.00049
 117        3PZ         0.00000   0.00000   0.00000   0.00000   0.00000
 118        4S          0.00152   0.00009   0.00159   0.00424  -0.00090
 119        4PX        -0.00070   0.00006  -0.00079  -0.00235   0.00062
 120        4PY        -0.00002  -0.00021  -0.00108  -0.00017   0.00048
 121        4PZ         0.00000   0.00000   0.00000   0.00000   0.00000
 122        5D 0       -0.00001   0.00000  -0.00003  -0.00001   0.00004
 123        5D+1        0.00000   0.00000   0.00000   0.00000   0.00000
 124        5D-1        0.00000   0.00000   0.00000   0.00000   0.00000
 125        5D+2        0.00003   0.00001  -0.00002   0.00009  -0.00009
 126        5D-2        0.00000   0.00001   0.00000   0.00003   0.00043
 127 8   C  1S          0.00000   0.00000   0.00000  -0.00003   0.00478
 128        2S          0.00001   0.00001   0.00001   0.00003   0.00403
 129        2PX        -0.00002  -0.00001  -0.00002  -0.00011  -0.00070
 130        2PY        -0.00002   0.00000   0.00000  -0.00007  -0.00023
 131        2PZ         0.00000   0.00000   0.00000   0.00000   0.00000
 132        3S         -0.00003  -0.00008  -0.00005  -0.00019   0.00002
 133        3PX         0.00012   0.00005   0.00011   0.00081   0.00248
 134        3PY         0.00012   0.00004   0.00003   0.00057   0.00078
 135        3PZ         0.00000   0.00000   0.00000   0.00000   0.00000
 136        4S         -0.00258   0.00017  -0.00312  -0.00462   0.00122
 137        4PX         0.00004   0.00009   0.00154  -0.00065  -0.00102
 138        4PY         0.00127  -0.00015   0.00002   0.00361  -0.00054
 139        4PZ         0.00000   0.00000   0.00000   0.00000   0.00000
 140        5D 0       -0.00002  -0.00001   0.00000  -0.00001   0.00039
 141        5D+1        0.00000   0.00000   0.00000   0.00000   0.00000
 142        5D-1        0.00000   0.00000   0.00000   0.00000   0.00000
 143        5D+2        0.00001  -0.00003  -0.00005  -0.00034  -0.00099
 144        5D-2       -0.00003  -0.00002   0.00002  -0.00028  -0.00090
 145 9   C  1S          0.00000   0.00000  -0.00003   0.00360   0.56399
 146        2S          0.00001   0.00001   0.00000   0.00308   0.46364
 147        2PX        -0.00002  -0.00003  -0.00005  -0.00010  -0.00025
 148        2PY        -0.00001  -0.00001   0.00003  -0.00077  -0.00028
 149        2PZ         0.00000   0.00000   0.00000   0.00000   0.00000
 150        3S         -0.00001  -0.00005   0.00007  -0.00025   0.01258
 151        3PX         0.00004   0.00014   0.00030   0.00032   0.00055
 152        3PY         0.00011   0.00007  -0.00021   0.00275  -0.00035
 153        3PZ         0.00000   0.00000   0.00000   0.00000   0.00000
 154        4S          0.00116  -0.00062  -0.00441   0.00587  -0.01100
 155        4PX         0.00354   0.00051   0.00404   0.00548   0.00185
 156        4PY        -0.00220  -0.00023   0.00442  -0.00907   0.00082
 157        4PZ         0.00000   0.00000   0.00000   0.00000   0.00000
 158        5D 0       -0.00001   0.00000   0.00008   0.00040  -0.00114
 159        5D+1        0.00000   0.00000   0.00000   0.00000   0.00000
 160        5D-1        0.00000   0.00000   0.00000   0.00000   0.00000
 161        5D+2        0.00001   0.00003  -0.00004   0.00128   0.00009
 162        5D-2       -0.00011   0.00001   0.00010  -0.00039   0.00026
 163 10  C  1S          0.00000   0.00000  -0.00002  -0.00003   0.00908
 164        2S          0.00001   0.00002   0.00004   0.00001   0.00749
 165        2PX        -0.00001  -0.00004  -0.00013   0.00010   0.00052
 166        2PY         0.00002  -0.00002   0.00000  -0.00005  -0.00035
 167        2PZ         0.00000   0.00000   0.00000   0.00000   0.00000
 168        3S         -0.00012  -0.00010  -0.00040  -0.00020   0.00037
 169        3PX         0.00006   0.00021   0.00098  -0.00066  -0.00158
 170        3PY        -0.00004   0.00013   0.00020   0.00033   0.00086
 171        3PZ         0.00000   0.00000   0.00000   0.00000   0.00000
 172        4S          0.00459  -0.00176   0.00243   0.00481   0.00391
 173        4PX         0.00021   0.00098  -0.00188   0.00388   0.00116
 174        4PY        -0.00132   0.00006  -0.00156  -0.00152  -0.00220
 175        4PZ         0.00000   0.00000   0.00000   0.00000   0.00000
 176        5D 0       -0.00001   0.00000   0.00001  -0.00004   0.00024
 177        5D+1        0.00000   0.00000   0.00000   0.00000   0.00000
 178        5D-1        0.00000   0.00000   0.00000   0.00000   0.00000
 179        5D+2       -0.00003   0.00002  -0.00025   0.00001  -0.00009
 180        5D-2        0.00001  -0.00009  -0.00040   0.00047   0.00100
 181 11  C  1S          0.00000   0.00000   0.00138  -0.00004   0.00005
 182        2S          0.00000   0.00002   0.00114  -0.00001   0.00009
 183        2PX         0.00001  -0.00005  -0.00012   0.00005   0.00011
 184        2PY        -0.00004  -0.00001  -0.00057   0.00001   0.00005
 185        2PZ         0.00000   0.00000   0.00000   0.00000   0.00000
 186        3S          0.00012  -0.00012   0.00034  -0.00006  -0.00016
 187        3PX        -0.00006   0.00021   0.00051  -0.00045  -0.00092
 188        3PY         0.00022   0.00011   0.00164  -0.00011  -0.00031
 189        3PZ         0.00000   0.00000   0.00000   0.00000   0.00000
 190        4S         -0.00147   0.00207   0.00111  -0.00144  -0.00247
 191        4PX        -0.00202   0.00251  -0.00127   0.00100  -0.00081
 192        4PY         0.00016   0.00011  -0.00220   0.00261   0.00146
 193        4PZ         0.00000   0.00000   0.00000   0.00000   0.00000
 194        5D 0        0.00000  -0.00001   0.00025   0.00006   0.00005
 195        5D+1        0.00000   0.00000   0.00000   0.00000   0.00000
 196        5D-1        0.00000   0.00000   0.00000   0.00000   0.00000
 197        5D+2        0.00011   0.00014   0.00105  -0.00014  -0.00033
 198        5D-2        0.00004  -0.00016  -0.00012  -0.00010  -0.00028
 199 12  H  1S         -0.00006  -0.00002  -0.00004  -0.00019  -0.00004
 200        2S          0.00037   0.00007   0.00014   0.00003  -0.00042
 201        3S          0.00023   0.00011   0.00024   0.00092  -0.00004
 202        4PX         0.00003   0.00003   0.00003  -0.00001   0.00001
 203        4PY         0.00000   0.00000   0.00002  -0.00041  -0.00015
 204        4PZ         0.00000   0.00000   0.00000   0.00000   0.00000
 205 13  H  1S         -0.00001  -0.00001   0.00001  -0.00007  -0.00007
 206        2S          0.00002   0.00000  -0.00025  -0.00019   0.00008
 207        3S          0.00001   0.00002  -0.00022  -0.00002   0.00030
 208        4PX         0.00000   0.00001   0.00001   0.00010   0.00005
 209        4PY         0.00000   0.00000  -0.00001  -0.00008  -0.00004
 210        4PZ         0.00000   0.00000   0.00000   0.00000   0.00000
 211 14  H  1S         -0.00002  -0.00001  -0.00002  -0.00008  -0.00005
 212        2S          0.00003  -0.00001   0.00018   0.00018  -0.00034
 213        3S          0.00011   0.00002   0.00020   0.00047  -0.00002
 214        4PX         0.00002   0.00000  -0.00001   0.00008   0.00015
 215        4PY         0.00000   0.00001   0.00002   0.00001   0.00002
 216        4PZ         0.00000   0.00000   0.00000   0.00000   0.00000
 217 15  H  1S          0.00000  -0.00001  -0.00002  -0.00003  -0.00010
 218        2S         -0.00016   0.00001   0.00010  -0.00078  -0.00075
 219        3S         -0.00018   0.00001   0.00006  -0.00057   0.00040
 220        4PX         0.00001   0.00001  -0.00001   0.00006   0.00017
 221        4PY         0.00002   0.00002   0.00001   0.00019   0.00042
 222        4PZ         0.00000   0.00000   0.00000   0.00000   0.00000
 223 16  H  1S         -0.00002  -0.00001  -0.00007  -0.00005  -0.00007
 224        2S         -0.00002   0.00008   0.00019  -0.00023  -0.00038
 225        3S          0.00014   0.00008   0.00047   0.00013   0.00053
 226        4PX         0.00000  -0.00002   0.00006  -0.00010  -0.00007
 227        4PY         0.00002   0.00000   0.00007   0.00012   0.00032
 228        4PZ         0.00000   0.00000   0.00000   0.00000   0.00000
 229 17  H  1S          0.00003  -0.00009  -0.00008  -0.00001  -0.00002
 230        2S         -0.00048   0.00048  -0.00051  -0.00012  -0.00043
 231        3S         -0.00029   0.00027   0.00022  -0.00003  -0.00013
 232        4PX        -0.00001  -0.00003  -0.00015  -0.00008  -0.00014
 233        4PY         0.00007  -0.00001   0.00026  -0.00004   0.00005
 234        4PZ         0.00000   0.00000   0.00000   0.00000   0.00000
                           6         7         8         9        10
                           O         O         O         O         O
     Eigenvalues --   -10.63328 -10.63109 -10.62262 -10.61509 -10.60611
   1 1   O  1S          0.00000   0.00000   0.00000   0.00000   0.00000
   2        2S          0.00003   0.00001   0.00000   0.00000   0.00001
   3        2PX         0.00002   0.00001   0.00000   0.00000   0.00000
   4        2PY         0.00001   0.00003   0.00000   0.00000   0.00000
   5        2PZ         0.00000   0.00000   0.00000   0.00000   0.00000
   6        3S         -0.00016  -0.00008  -0.00005  -0.00004  -0.00006
   7        3PX        -0.00017  -0.00004  -0.00001   0.00000  -0.00003
   8        3PY        -0.00010  -0.00012   0.00002  -0.00002   0.00000
   9        3PZ         0.00000   0.00000   0.00000   0.00000   0.00000
  10        4S          0.00013  -0.00003   0.00018   0.00012   0.00016
  11        4PX        -0.00018   0.00001   0.00006  -0.00005   0.00006
  12        4PY        -0.00023   0.00029  -0.00004   0.00003  -0.00005
  13        4PZ         0.00000   0.00000   0.00000   0.00000   0.00000
  14        5D 0        0.00003   0.00001  -0.00001   0.00000   0.00000
  15        5D+1        0.00000   0.00000   0.00000   0.00000   0.00000
  16        5D-1        0.00000   0.00000   0.00000   0.00000   0.00000
  17        5D+2       -0.00002   0.00000   0.00000  -0.00001   0.00000
  18        5D-2       -0.00012  -0.00002   0.00000  -0.00001  -0.00001
  19 2   C  1S         -0.00140   0.00037   0.00000   0.00000   0.00000
  20        2S         -0.00115   0.00037   0.00000   0.00001   0.00001
  21        2PX         0.00004   0.00001  -0.00001   0.00000   0.00000
  22        2PY         0.00054   0.00001   0.00001  -0.00001   0.00001
  23        2PZ         0.00000   0.00000   0.00000   0.00000   0.00000
  24        3S          0.00021  -0.00031   0.00000  -0.00015  -0.00010
  25        3PX        -0.00003  -0.00016   0.00009  -0.00004  -0.00001
  26        3PY        -0.00125  -0.00055  -0.00008   0.00003  -0.00008
  27        3PZ         0.00000   0.00000   0.00000   0.00000   0.00000
  28        4S          0.00319  -0.00295   0.00094   0.00097   0.00037
  29        4PX         0.00182  -0.00079   0.00033   0.00050   0.00011
  30        4PY         0.00097  -0.00121   0.00042   0.00021   0.00042
  31        4PZ         0.00000   0.00000   0.00000   0.00000   0.00000
  32        5D 0        0.00025  -0.00003  -0.00002  -0.00004  -0.00002
  33        5D+1        0.00000   0.00000   0.00000   0.00000   0.00000
  34        5D-1        0.00000   0.00000   0.00000   0.00000   0.00000
  35        5D+2        0.00073   0.00023   0.00000   0.00002   0.00003
  36        5D-2       -0.00008  -0.00014  -0.00002   0.00002   0.00000
  37 3   O  1S          0.00000   0.00000   0.00000   0.00000   0.00000
  38        2S          0.00000   0.00001   0.00001   0.00001   0.00001
  39        2PX         0.00001  -0.00001   0.00004   0.00001   0.00002
  40        2PY         0.00002   0.00003   0.00000   0.00000   0.00002
  41        2PZ         0.00000   0.00000   0.00000   0.00000   0.00000
  42        3S          0.00018  -0.00006  -0.00002  -0.00006   0.00000
  43        3PX        -0.00002   0.00004  -0.00017  -0.00006  -0.00008
  44        3PY        -0.00008  -0.00012   0.00002  -0.00002  -0.00007
  45        3PZ         0.00000   0.00000   0.00000   0.00000   0.00000
  46        4S         -0.00153   0.00001  -0.00044   0.00027  -0.00053
  47        4PX         0.00060  -0.00012   0.00040   0.00008  -0.00003
  48        4PY        -0.00084   0.00027  -0.00034   0.00003   0.00002
  49        4PZ         0.00000   0.00000   0.00000   0.00000   0.00000
  50        5D 0        0.00006   0.00003   0.00002   0.00002   0.00001
  51        5D+1        0.00000   0.00000   0.00000   0.00000   0.00000
  52        5D-1        0.00000   0.00000   0.00000   0.00000   0.00000
  53        5D+2       -0.00001  -0.00002  -0.00003  -0.00002  -0.00001
  54        5D-2        0.00007   0.00001  -0.00001  -0.00002  -0.00003
  55 4   C  1S          0.00006   0.00007  -0.00003   0.00006   0.00005
  56        2S          0.00008   0.00008   0.00005   0.00011   0.00009
  57        2PX         0.00001  -0.00004   0.00012   0.00003   0.00004
  58        2PY         0.00009   0.00006  -0.00009   0.00002   0.00010
  59        2PZ         0.00000   0.00000   0.00000   0.00000   0.00000
  60        3S         -0.00018  -0.00008  -0.00025  -0.00045  -0.00010
  61        3PX         0.00001   0.00019  -0.00077  -0.00027  -0.00026
  62        3PY        -0.00067  -0.00044   0.00060  -0.00015  -0.00070
  63        3PZ         0.00000   0.00000   0.00000   0.00000   0.00000
  64        4S         -0.00189  -0.00363  -0.00544   0.00282  -0.00610
  65        4PX        -0.00141  -0.00064  -0.00295   0.00270  -0.00315
  66        4PY         0.00232  -0.00192   0.00107  -0.00069  -0.00088
  67        4PZ         0.00000   0.00000   0.00000   0.00000   0.00000
  68        5D 0       -0.00001   0.00000   0.00007  -0.00002   0.00005
  69        5D+1        0.00000   0.00000   0.00000   0.00000   0.00000
  70        5D-1        0.00000   0.00000   0.00000   0.00000   0.00000
  71        5D+2        0.00026   0.00020  -0.00015   0.00011   0.00028
  72        5D-2       -0.00006  -0.00001   0.00042   0.00001  -0.00016
  73 5   C  1S         -0.00002  -0.00001   0.01121  -0.00122  -0.00119
  74        2S          0.00001   0.00001   0.00934  -0.00096  -0.00092
  75        2PX         0.00000  -0.00001   0.00071   0.00009   0.00002
  76        2PY         0.00001   0.00000   0.00020   0.00005   0.00001
  77        2PZ         0.00000   0.00000   0.00000   0.00000   0.00000
  78        3S         -0.00020  -0.00021  -0.00005  -0.00011  -0.00045
  79        3PX         0.00007   0.00008  -0.00247  -0.00072  -0.00011
  80        3PY        -0.00008  -0.00005  -0.00059  -0.00048  -0.00019
  81        3PZ         0.00000   0.00000   0.00000   0.00000   0.00000
  82        4S          0.00310   0.00112   0.00787  -0.00598   0.00525
  83        4PX        -0.00102   0.00072   0.00040  -0.00013   0.00065
  84        4PY         0.00100   0.00121   0.00426  -0.00276   0.00286
  85        4PZ         0.00000   0.00000   0.00000   0.00000   0.00000
  86        5D 0       -0.00003  -0.00002   0.00038   0.00003  -0.00001
  87        5D+1        0.00000   0.00000   0.00000   0.00000   0.00000
  88        5D-1        0.00000   0.00000   0.00000   0.00000   0.00000
  89        5D+2        0.00004   0.00002  -0.00098  -0.00026  -0.00006
  90        5D-2        0.00008   0.00007  -0.00089  -0.00024   0.00001
  91 6   C  1S          0.00000  -0.00005   0.56325  -0.02864   0.00082
  92        2S          0.00000  -0.00003   0.46303  -0.02345   0.00072
  93        2PX        -0.00001  -0.00002  -0.00006   0.00018   0.00002
  94        2PY         0.00000   0.00000   0.00023   0.00065   0.00011
  95        2PZ         0.00000   0.00000   0.00000   0.00000   0.00000
  96        3S         -0.00003  -0.00009   0.01308  -0.00086  -0.00005
  97        3PX         0.00008   0.00013  -0.00026  -0.00064  -0.00006
  98        3PY        -0.00002  -0.00002  -0.00021  -0.00206  -0.00090
  99        3PZ         0.00000   0.00000   0.00000   0.00000   0.00000
 100        4S         -0.00027  -0.00119  -0.01043   0.00722  -0.00613
 101        4PX         0.00044   0.00036   0.00490  -0.00335   0.00222
 102        4PY        -0.00036   0.00001  -0.00444   0.00348  -0.00190
 103        4PZ         0.00000   0.00000   0.00000   0.00000   0.00000
 104        5D 0        0.00000  -0.00001  -0.00123   0.00043   0.00003
 105        5D+1        0.00000   0.00000   0.00000   0.00000   0.00000
 106        5D-1        0.00000   0.00000   0.00000   0.00000   0.00000
 107        5D+2        0.00000  -0.00001   0.00011   0.00113   0.00038
 108        5D-2       -0.00005  -0.00005   0.00000  -0.00035  -0.00012
 109 7   C  1S         -0.00002  -0.00002   0.02854   0.56277  -0.02614
 110        2S         -0.00001   0.00000   0.02355   0.46261  -0.02136
 111        2PX        -0.00001  -0.00001  -0.00007  -0.00013  -0.00050
 112        2PY         0.00002   0.00002  -0.00070  -0.00018   0.00051
 113        2PZ         0.00000   0.00000   0.00000   0.00000   0.00000
 114        3S         -0.00010  -0.00013   0.00046   0.01312  -0.00097
 115        3PX         0.00009   0.00011   0.00007  -0.00017   0.00170
 116        3PY        -0.00010  -0.00009   0.00222   0.00010  -0.00176
 117        3PZ         0.00000   0.00000   0.00000   0.00000   0.00000
 118        4S          0.00155  -0.00020   0.00736  -0.01040   0.00872
 119        4PX        -0.00063  -0.00026  -0.00419   0.00633  -0.00518
 120        4PY         0.00054  -0.00023  -0.00191   0.00238  -0.00127
 121        4PZ         0.00000   0.00000   0.00001  -0.00001   0.00001
 122        5D 0       -0.00001  -0.00001   0.00030  -0.00128   0.00050
 123        5D+1        0.00000   0.00000   0.00000   0.00000   0.00000
 124        5D-1        0.00000   0.00000   0.00000   0.00000   0.00000
 125        5D+2       -0.00005  -0.00003   0.00110   0.00003  -0.00027
 126        5D-2        0.00004   0.00004  -0.00052   0.00000   0.00131
 127 8   C  1S         -0.00008  -0.00023   0.00051   0.02599   0.56344
 128        2S         -0.00004  -0.00017   0.00048   0.02149   0.46321
 129        2PX        -0.00005  -0.00003   0.00012   0.00057  -0.00036
 130        2PY         0.00000  -0.00001  -0.00013  -0.00045  -0.00018
 131        2PZ         0.00000   0.00000   0.00000   0.00000   0.00000
 132        3S         -0.00015  -0.00011  -0.00008   0.00027   0.01327
 133        3PX         0.00035   0.00027  -0.00071  -0.00203   0.00053
 134        3PY         0.00004   0.00013   0.00089   0.00147  -0.00014
 135        3PZ         0.00000   0.00000   0.00000   0.00000   0.00000
 136        4S          0.00089   0.00282  -0.00712   0.00746  -0.01382
 137        4PX        -0.00175  -0.00053   0.00090  -0.00100   0.00144
 138        4PY         0.00071  -0.00066   0.00340  -0.00376   0.00831
 139        4PZ         0.00000   0.00000   0.00000   0.00000   0.00000
 140        5D 0       -0.00001  -0.00001   0.00007   0.00036  -0.00131
 141        5D+1        0.00000   0.00000   0.00000   0.00000   0.00000
 142        5D-1        0.00000   0.00000   0.00000   0.00000   0.00000
 143        5D+2       -0.00019  -0.00023  -0.00006  -0.00015  -0.00005
 144        5D-2       -0.00006  -0.00011   0.00050   0.00126  -0.00021
 145 9   C  1S         -0.00234  -0.00886   0.00018  -0.00019  -0.00491
 146        2S         -0.00188  -0.00728   0.00021  -0.00010  -0.00395
 147        2PX        -0.00026  -0.00045   0.00007   0.00016   0.00069
 148        2PY         0.00018   0.00033  -0.00005   0.00002   0.00024
 149        2PZ         0.00000   0.00000   0.00000   0.00000   0.00000
 150        3S         -0.00009  -0.00008  -0.00037  -0.00015  -0.00027
 151        3PX         0.00122   0.00105  -0.00050  -0.00098  -0.00217
 152        3PY        -0.00077  -0.00067   0.00040  -0.00011  -0.00070
 153        3PZ         0.00000   0.00000   0.00000   0.00000   0.00000
 154        4S         -0.00341   0.00638   0.00169  -0.00515   0.00660
 155        4PX        -0.00073  -0.00566   0.00569  -0.00199   0.00764
 156        4PY        -0.00092  -0.00145  -0.00233  -0.00136  -0.00414
 157        4PZ         0.00000   0.00000   0.00000   0.00000   0.00000
 158        5D 0        0.00012   0.00026   0.00000   0.00008   0.00040
 159        5D+1        0.00000   0.00000   0.00000   0.00000   0.00000
 160        5D-1        0.00000   0.00000   0.00000   0.00000   0.00000
 161        5D+2       -0.00028  -0.00008   0.00005  -0.00041  -0.00084
 162        5D-2        0.00066   0.00061  -0.00009  -0.00024  -0.00068
 163 10  C  1S          0.14018   0.54627   0.00005   0.00002   0.00016
 164        2S          0.11548   0.44908   0.00006   0.00004   0.00016
 165        2PX        -0.00071   0.00043   0.00002   0.00005   0.00005
 166        2PY        -0.00035  -0.00024   0.00000  -0.00001  -0.00003
 167        2PZ         0.00000   0.00000   0.00000   0.00000   0.00000
 168        3S          0.00254   0.01312  -0.00016  -0.00015  -0.00012
 169        3PX         0.00296  -0.00237  -0.00015  -0.00029  -0.00034
 170        3PY         0.00126  -0.00030   0.00001   0.00010   0.00022
 171        3PZ         0.00000   0.00000   0.00000   0.00000   0.00000
 172        4S          0.00320  -0.01172   0.00451   0.00068   0.00477
 173        4PX        -0.00087   0.00148   0.00098   0.00175   0.00106
 174        4PY        -0.00143   0.00726  -0.00194   0.00011  -0.00152
 175        4PZ         0.00000   0.00001   0.00000   0.00000   0.00000
 176        5D 0        0.00027  -0.00139  -0.00002  -0.00003  -0.00002
 177        5D+1        0.00000   0.00000   0.00000   0.00000   0.00000
 178        5D-1        0.00000   0.00000   0.00000   0.00000   0.00000
 179        5D+2       -0.00111   0.00052   0.00000  -0.00006  -0.00015
 180        5D-2       -0.00108   0.00096   0.00012   0.00013   0.00031
 181 11  C  1S          0.54635  -0.14042  -0.00001   0.00002   0.00002
 182        2S          0.44913  -0.11520   0.00000   0.00002   0.00003
 183        2PX         0.00017   0.00070   0.00002   0.00001   0.00003
 184        2PY        -0.00045   0.00046   0.00001  -0.00001   0.00001
 185        2PZ         0.00000   0.00000   0.00000   0.00000   0.00000
 186        3S          0.01270  -0.00401   0.00000  -0.00004  -0.00013
 187        3PX         0.00042  -0.00323  -0.00017  -0.00011  -0.00023
 188        3PY         0.00105  -0.00154  -0.00007   0.00002  -0.00008
 189        3PZ         0.00001   0.00000   0.00000   0.00000   0.00000
 190        4S         -0.00707   0.00789  -0.00147   0.00061  -0.00094
 191        4PX        -0.00403   0.00417  -0.00057   0.00016  -0.00001
 192        4PY         0.00204  -0.00231   0.00078   0.00075   0.00029
 193        4PZ         0.00000   0.00000   0.00000   0.00000   0.00000
 194        5D 0       -0.00117   0.00092   0.00000   0.00000  -0.00001
 195        5D+1        0.00000   0.00000   0.00000   0.00000   0.00000
 196        5D-1        0.00000   0.00000   0.00000   0.00000   0.00000
 197        5D+2        0.00063  -0.00132  -0.00005  -0.00004  -0.00009
 198        5D-2       -0.00003  -0.00120  -0.00004  -0.00003  -0.00002
 199 12  H  1S         -0.00002  -0.00004  -0.00016  -0.00002  -0.00008
 200        2S         -0.00006   0.00028  -0.00011  -0.00046   0.00032
 201        3S          0.00010   0.00029   0.00099  -0.00027   0.00051
 202        4PX         0.00003   0.00001  -0.00015  -0.00005  -0.00002
 203        4PY        -0.00003   0.00000  -0.00037  -0.00012  -0.00005
 204        4PZ         0.00000   0.00000   0.00000   0.00000   0.00000
 205 13  H  1S          0.00000  -0.00003   0.00049  -0.00020  -0.00003
 206        2S         -0.00015   0.00002  -0.00389   0.00039  -0.00044
 207        3S         -0.00006   0.00001  -0.00014   0.00104  -0.00033
 208        4PX         0.00001   0.00001   0.00133   0.00012   0.00009
 209        4PY        -0.00002  -0.00002  -0.00113  -0.00020  -0.00009
 210        4PZ         0.00000   0.00000   0.00000   0.00000   0.00000
 211 14  H  1S         -0.00001  -0.00003  -0.00015   0.00049  -0.00020
 212        2S         -0.00003   0.00013  -0.00001  -0.00394   0.00029
 213        3S          0.00011   0.00014   0.00109  -0.00020   0.00114
 214        4PX         0.00001   0.00000   0.00035   0.00165   0.00028
 215        4PY        -0.00002   0.00000   0.00020   0.00057   0.00002
 216        4PZ         0.00000   0.00000   0.00000   0.00000   0.00000
 217 15  H  1S         -0.00002  -0.00004  -0.00002  -0.00015   0.00054
 218        2S         -0.00036  -0.00014  -0.00066  -0.00024  -0.00420
 219        3S         -0.00015   0.00004  -0.00045   0.00090  -0.00042
 220        4PX         0.00009   0.00005   0.00000   0.00002   0.00031
 221        4PY         0.00007   0.00010   0.00019   0.00045   0.00173
 222        4PZ         0.00000   0.00000   0.00000   0.00000   0.00000
 223 16  H  1S         -0.00006   0.00056  -0.00003  -0.00001  -0.00005
 224        2S         -0.00133  -0.00373   0.00012  -0.00028  -0.00021
 225        3S          0.00080  -0.00036   0.00029  -0.00015   0.00012
 226        4PX         0.00021   0.00017  -0.00004  -0.00005  -0.00004
 227        4PY         0.00089   0.00154   0.00002   0.00007   0.00014
 228        4PZ         0.00000   0.00000   0.00000   0.00000   0.00000
 229 17  H  1S          0.00040  -0.00030   0.00000   0.00001  -0.00002
 230        2S         -0.00380   0.00062  -0.00015  -0.00020   0.00005
 231        3S          0.00036   0.00093  -0.00011  -0.00001   0.00009
 232        4PX        -0.00147  -0.00009  -0.00002  -0.00004  -0.00001
 233        4PY         0.00112  -0.00008   0.00001  -0.00001  -0.00001
 234        4PZ         0.00000   0.00000   0.00000   0.00000   0.00000
                          11        12        13        14        15
                           O         O         O         O         O
     Eigenvalues --   -10.60232  -1.31908  -1.22721  -1.05073  -0.99319
   1 1   O  1S          0.00000  -0.04187  -0.09652  -0.00811   0.01463
   2        2S          0.00001  -0.06876  -0.15880  -0.01335   0.02438
   3        2PX        -0.00001   0.03172   0.05601  -0.00034  -0.00378
   4        2PY         0.00000   0.01138   0.03106   0.00546   0.00450
   5        2PZ         0.00000   0.00001   0.00000   0.00000   0.00001
   6        3S         -0.00007   0.19573   0.45308   0.03797  -0.07243
   7        3PX         0.00001   0.04877   0.08393  -0.00164  -0.00722
   8        3PY        -0.00001   0.01719   0.04697   0.00758   0.00616
   9        3PZ         0.00000   0.00001   0.00000   0.00000   0.00001
  10        4S          0.00033   0.13459   0.33199   0.03035  -0.05415
  11        4PX        -0.00006   0.02197   0.03394  -0.00100   0.00109
  12        4PY        -0.00002   0.00523   0.02098   0.00641   0.00408
  13        4PZ         0.00000   0.00001   0.00000   0.00000   0.00000
  14        5D 0        0.00001  -0.00304  -0.00576  -0.00008   0.00040
  15        5D+1        0.00000   0.00000   0.00000   0.00000   0.00000
  16        5D-1        0.00000   0.00000   0.00000   0.00000   0.00000
  17        5D+2        0.00000   0.00634   0.00796  -0.00095  -0.00208
  18        5D-2       -0.00001   0.00509   0.01288   0.00131  -0.00023
  19 2   C  1S          0.00000  -0.05417  -0.04282   0.00379  -0.02193
  20        2S          0.00002  -0.08532  -0.06658   0.00628  -0.03559
  21        2PX         0.00000   0.00704  -0.09540  -0.02062   0.02586
  22        2PY        -0.00002  -0.03526  -0.02671   0.01749   0.04195
  23        2PZ         0.00000   0.00005  -0.00002  -0.00002   0.00004
  24        3S         -0.00025   0.22153   0.17617  -0.01677   0.09928
  25        3PX        -0.00002   0.02270  -0.12332  -0.03237   0.03628
  26        3PY         0.00006  -0.05268  -0.03106   0.02933   0.06236
  27        3PZ         0.00000   0.00007  -0.00003  -0.00003   0.00005
  28        4S          0.00167   0.03015   0.03635  -0.01525   0.01616
  29        4PX         0.00096   0.00462   0.03458   0.00105  -0.00196
  30        4PY         0.00068   0.01448   0.01182  -0.01215   0.01412
  31        4PZ         0.00000   0.00000   0.00001   0.00000   0.00001
  32        5D 0       -0.00006  -0.01469  -0.00794   0.00140  -0.00321
  33        5D+1        0.00000   0.00003  -0.00001  -0.00001   0.00001
  34        5D-1        0.00000  -0.00002   0.00001   0.00001   0.00002
  35        5D+2        0.00004   0.01197   0.00520  -0.00137  -0.00345
  36        5D-2        0.00002  -0.00829   0.02156   0.01000   0.00286
  37 3   O  1S          0.00000  -0.09537   0.04937   0.02553   0.01222
  38        2S          0.00002  -0.15679   0.08131   0.04249   0.02040
  39        2PX         0.00003  -0.00087  -0.02574   0.02496  -0.02298
  40        2PY         0.00001   0.03674  -0.01759  -0.00202   0.01943
  41        2PZ         0.00000  -0.00003   0.00000   0.00002  -0.00001
  42        3S         -0.00001   0.44820  -0.23262  -0.12752  -0.06336
  43        3PX        -0.00013  -0.00203  -0.03915   0.03489  -0.03309
  44        3PY        -0.00004   0.06118  -0.02930  -0.00528   0.02802
  45        3PZ         0.00000  -0.00005  -0.00001   0.00003  -0.00002
  46        4S         -0.00013   0.35609  -0.20037  -0.09542  -0.03789
  47        4PX        -0.00026   0.00983  -0.02113   0.02720  -0.02287
  48        4PY        -0.00014   0.03556  -0.02197  -0.00039   0.02275
  49        4PZ         0.00000  -0.00001   0.00000   0.00003  -0.00002
  50        5D 0        0.00006  -0.00831   0.00391   0.00061  -0.00078
  51        5D+1        0.00000   0.00002  -0.00001  -0.00001   0.00000
  52        5D-1        0.00000  -0.00001   0.00000   0.00000   0.00000
  53        5D+2       -0.00010   0.00512  -0.00091  -0.00074  -0.00450
  54        5D-2       -0.00007  -0.00176  -0.00193   0.00350  -0.00206
  55 4   C  1S         -0.00218  -0.03349   0.02695  -0.04742   0.01721
  56        2S         -0.00168  -0.05323   0.04301  -0.07644   0.02789
  57        2PX         0.00054  -0.03715   0.02529   0.03744  -0.01508
  58        2PY        -0.00052  -0.01060   0.00803   0.02713   0.03704
  59        2PZ         0.00000  -0.00002   0.00002  -0.00001   0.00000
  60        3S         -0.00034   0.13374  -0.10971   0.20552  -0.07526
  61        3PX        -0.00161  -0.06248   0.04054   0.05279  -0.01726
  62        3PY         0.00173  -0.01736   0.01358   0.04033   0.05745
  63        3PZ         0.00000  -0.00004   0.00002  -0.00002   0.00000
  64        4S          0.00748   0.04768  -0.03620   0.08854  -0.05785
  65        4PX         0.00409   0.06544  -0.00837   0.02996  -0.00463
  66        4PY         0.00042   0.02244  -0.03135   0.02496  -0.00470
  67        4PZ         0.00000   0.00001   0.00002  -0.00003  -0.00002
  68        5D 0        0.00042  -0.01001   0.00753  -0.00818   0.00280
  69        5D+1        0.00000   0.00001  -0.00001  -0.00001   0.00000
  70        5D-1        0.00000   0.00000   0.00000  -0.00001  -0.00001
  71        5D+2       -0.00026   0.01324  -0.00794  -0.00599  -0.00643
  72        5D-2        0.00110   0.00822  -0.00654  -0.00222  -0.00475
  73 5   C  1S          0.56394  -0.00551   0.00606  -0.03935   0.03728
  74        2S          0.46361  -0.00873   0.00959  -0.06269   0.05975
  75        2PX        -0.00023  -0.00602   0.00561   0.00248  -0.00409
  76        2PY         0.00034   0.00313  -0.00339   0.02714  -0.01590
  77        2PZ         0.00000   0.00000   0.00000  -0.00002   0.00002
  78        3S          0.01331   0.02327  -0.02439   0.16058  -0.15525
  79        3PX         0.00030  -0.00987   0.00928   0.00345  -0.00416
  80        3PY         0.00008   0.00435  -0.00592   0.03957  -0.02555
  81        3PZ         0.00000   0.00000   0.00001  -0.00003   0.00003
  82        4S         -0.01120  -0.03541  -0.01160   0.05715  -0.07037
  83        4PX        -0.00135  -0.02045   0.01983  -0.00661  -0.00451
  84        4PY        -0.00676  -0.02259   0.00069   0.00009  -0.00300
  85        4PZ         0.00001   0.00001  -0.00001   0.00001   0.00002
  86        5D 0       -0.00135  -0.00087   0.00121  -0.00738   0.00591
  87        5D+1        0.00000   0.00000   0.00000  -0.00001   0.00001
  88        5D-1        0.00000   0.00000   0.00000  -0.00001   0.00001
  89        5D+2       -0.00001   0.00272  -0.00178  -0.00191  -0.00259
  90        5D-2        0.00014  -0.00263   0.00218  -0.00081   0.00042
  91 6   C  1S         -0.01140  -0.00090   0.00146  -0.03861   0.03777
  92        2S         -0.00925  -0.00147   0.00234  -0.06180   0.06062
  93        2PX        -0.00065  -0.00072   0.00132  -0.01842   0.01468
  94        2PY        -0.00029   0.00017  -0.00028   0.01584  -0.00960
  95        2PZ         0.00000   0.00000   0.00000   0.00000   0.00000
  96        3S         -0.00059   0.00426  -0.00619   0.16018  -0.15871
  97        3PX         0.00219  -0.00304   0.00261  -0.02811   0.02351
  98        3PY         0.00101   0.00025  -0.00060   0.02395  -0.01454
  99        3PZ         0.00000   0.00000   0.00000   0.00000   0.00000
 100        4S          0.00714   0.03111  -0.01349   0.07674  -0.06252
 101        4PX        -0.00376  -0.00985   0.00495  -0.00985   0.00496
 102        4PY         0.00263  -0.00438   0.00685   0.00662  -0.00360
 103        4PZ         0.00000   0.00002  -0.00001   0.00000  -0.00001
 104        5D 0        0.00046  -0.00019   0.00037  -0.00670   0.00533
 105        5D+1        0.00000   0.00000   0.00000  -0.00001   0.00001
 106        5D-1        0.00000   0.00000   0.00000  -0.00001   0.00001
 107        5D+2       -0.00106   0.00077  -0.00060   0.00004  -0.00093
 108        5D-2       -0.00077  -0.00042   0.00035   0.00033  -0.00117
 109 7   C  1S          0.00059  -0.00052   0.00094  -0.03949   0.02761
 110        2S          0.00053  -0.00091   0.00152  -0.06317   0.04438
 111        2PX        -0.00003  -0.00049   0.00087  -0.02407   0.00937
 112        2PY        -0.00013  -0.00009   0.00022  -0.00699   0.01448
[...]
     7. BD (   1) C   4 - C   9          0.98804    -0.87019  219(g),229(g),231(g),230(v)
                                                    233(v),223(v),93(v),158(v)
                                                    132(v),94(v),70(v)
     8. BD (   1) C   5 - C   6          0.98914    -0.84090  218(v),219(g),228(v),224(g)
                                                    223(g),120(v),81(v),119(v)
                                                    80(v),225(g)
     9. BD (   2) C   5 - C   6          0.82100    -0.34343  37(v),227(v),222(g),121(v)
                                                    95(g),82(v),86(v)
    10. BD (   1) C   5 - H  12          0.98778    -0.63293  220(v),224(v),218(v),106(v)
                                                    221(g),80(v),219(g),225(v)
    11. BD (   1) C   6 - C   7          0.99136    -0.83676  230(v),223(v),226(g),221(g)
                                                    94(v),133(v),228(g),225(g)
                                                    132(v),93(v)
    12. BD (   1) C   6 - H  13          0.98930    -0.63543  219(v),226(v),119(v),93(v)
                                                    223(v),228(v),221(g)
    13. BD (   1) C   7 - C   8          0.99047    -0.84050  231(v),229(g),224(g),225(v)
                                                    146(v),230(g),107(v),228(g)
                                                    106(v)
    14. BD (   2) C   7 - C   8          0.82115    -0.34263  38(v),222(v),39(r),227(g)
                                                    108(v),147(v),134(g)
    15. BD (   1) C   7 - H  14          0.98920    -0.63255  229(v),221(v),132(v),106(v)
                                                    230(v),225(v),226(g),224(g)
    16. BD (   1) C   8 - C   9          0.98598    -0.83963  218(v),220(g),231(g),226(g)
                                                    228(v),158(v),232(v),120(v)
                                                    230(g),119(v),81(v)
    17. BD (   1) C   8 - H  15          0.98894    -0.63064  220(v),224(v),145(v),119(v)
                                                    226(g),229(g),228(v)
    18. BD (   1) C   9 - C  10          0.98698    -0.82086  229(g),219(v),234(v),232(g)
                                                    220(g),226(v),132(v),172(v)
                                                    80(v),171(v),233(g)
    19. BD (   1) C  10 - C  11          0.99186    -0.89594  229(v),231(g),214(v),146(v)
                                                    234(g),233(g),57(v),217(g)
    20. BD (   1) C  10 - H  16          0.98884    -0.64738  217(v),220(v),232(g),171(v)
                                                    234(v),145(v),146(v)
    21. BD (   1) C  11 - H  17          0.98747    -0.64915  231(v),216(v),232(g),158(v)
                                                    233(v),54(v),214(v)
    22. CR (   1) O   1                  0.99988   -19.41509  54(v),217(v),216(v)
    23. CR (   1) C   2                  0.99963   -10.62656  218(v),172(v),232(v)
    24. CR (   1) O   3                  0.99983   -19.55498  80(v),55(v),57(v),220(v)
    25. CR (   1) C   4                  0.99933   -10.57325  146(v),94(v),216(v),218(g)
                                                    231(v),220(g),219(g),229(v)
                                                    221(v)
    26. CR (   1) C   5                  0.99954   -10.45901  81(v),107(v),220(v),224(v)
                                                    218(v),83(v),185(v)
    27. CR (   1) C   6                  0.99959   -10.47790  120(v),94(v),219(v),226(v)
                                                    96(v),190(v),93(v)
    28. CR (   1) C   7                  0.99958   -10.46952  107(v),229(v),133(v),221(v)
                                                    135(v),195(v)
    29. CR (   1) C   8                  0.99956   -10.46147  120(v),145(v),231(v),220(v)
                                                    224(v),200(v),148(v)
    30. CR (   1) C   9                  0.99947   -10.50051  133(v),81(v),159(v),219(v)
                                                    80(v),226(v),218(v),232(v)
    31. CR (   1) C  10                  0.99955   -10.48599  229(v),145(v),173(v),217(v)
                                                    172(v),220(v),148(v),205(v)
                                                    232(g)
    32. CR (   1) C  11                  0.99952   -10.49134  159(v),231(v),161(v),58(v)
                                                    232(g),214(v),54(v)
    33. LP (   1) O   1                  0.99112    -0.85108  54(v),217(v),64(v),216(v)
    34. LP (   2) O   1                  0.92603    -0.39433  216(v),217(v),55(v),57(v)
                                                    218(r)
    35. LP (   1) O   3                  0.98192    -0.69256  220(v),217(v),214(v),80(v)
                                                    55(v),57(v),219(v),83(v)
    36. LP (   2) O   3                  0.82569    -0.44832  37(v),215(v),56(v),82(v)
                                                    40(r)
    37. LP*(   1) C   4                  0.32101    -0.15972  38(v),222(v),40(r),95(v)
                                                    149(v),69(v),86(g),227(r)
                                                    85(g)
    38. LP*(   1) C   9                  0.34847    -0.14919  37(v),39(v),227(v),40(r)
                                                    134(v),160(v),85(v),155(g)
                                                    149(g),222(r)
    39. LP (   1) C  10                  0.47534    -0.18364  38(v),40(v),160(g),176(v)
                                                    147(v),155(v),167(g)
    40. LP*(   1) C  11                  0.30334    -0.13518  39(v),215(v),37(r),38(r)
                                                    176(g),164(v),59(v)
    41. RY*(   1) O   1                  0.00091     1.09969   
    42. RY*(   2) O   1                  0.00019     0.94963   
    43. RY*(   3) O   1                  0.00012     2.37992   
    44. RY*(   4) O   1                  0.00006     2.35248   
    45. RY*(   5) O   1                  0.00002     2.95648   
    46. RY*(   6) O   1                  0.00000     4.80591   
    47. RY*(   7) O   1                  0.00000     4.39539   
    48. RY*(   8) O   1                  0.00000     4.89198   
    49. RY*(   9) O   1                  0.00000     3.46091   
    50. RY*(  10) O   1                  0.00000     3.07859   
    51. RY*(  11) O   1                  0.00000     2.92117   
    52. RY*(  12) O   1                  0.00000    49.56284   
    53. RY*(  13) O   1                  0.00000     2.98030   
    54. RY*(   1) C   2                  0.00673     0.95124   
    55. RY*(   2) C   2                  0.00469     1.83281   
    56. RY*(   3) C   2                  0.00175     1.43533   
    57. RY*(   4) C   2                  0.00154     2.14796   
    58. RY*(   5) C   2                  0.00093     1.98283   
    59. RY*(   6) C   2                  0.00037     1.45314   
    60. RY*(   7) C   2                  0.00033     2.09232   
    61. RY*(   8) C   2                  0.00007     0.74887   
    62. RY*(   9) C   2                  0.00004     6.04523   
    63. RY*(  10) C   2                  0.00000     3.50357   
    64. RY*(  11) C   2                  0.00001     3.10376   
    65. RY*(  12) C   2                  0.00000     2.53879   
    66. RY*(  13) C   2                  0.00000    15.74635   
    67. RY*(   1) O   3                  0.00145     1.16516   
    68. RY*(   2) O   3                  0.00069     2.36472   
    69. RY*(   3) O   3                  0.00056     0.95096   
    70. RY*(   4) O   3                  0.00031     1.83893   
    71. RY*(   5) O   3                  0.00008     2.96873   
    72. RY*(   6) O   3                  0.00003     3.41982   
    73. RY*(   7) O   3                  0.00002     5.02259   
    74. RY*(   8) O   3                  0.00001     3.48953   
    75. RY*(   9) O   3                  0.00000     4.94223   
    76. RY*(  10) O   3                  0.00000    49.39182   
    77. RY*(  11) O   3                  0.00001     2.87399   
    78. RY*(  12) O   3                  0.00000     4.87487   
    79. RY*(  13) O   3                  0.00001     3.17965   
    80. RY*(   1) C   4                  0.00249     1.38092   
    81. RY*(   2) C   4                  0.00188     1.75240   
    82. RY*(   3) C   4                  0.00125     1.53386   
    83. RY*(   4) C   4                  0.00096     1.46137   
    84. RY*(   5) C   4                  0.00038     2.31440   
    85. RY*(   6) C   4                  0.00039     0.86209   
    86. RY*(   7) C   4                  0.00016     1.31424   
    87. RY*(   8) C   4                  0.00011     2.59064   
    88. RY*(   9) C   4                  0.00008     2.84144   
    89. RY*(  10) C   4                  0.00002     3.11022   
    90. RY*(  11) C   4                  0.00001     6.09338   
    91. RY*(  12) C   4                  0.00000     2.66764   
    92. RY*(  13) C   4                  0.00000    17.45847   
    93. RY*(   1) C   5                  0.00291     1.33992   
    94. RY*(   2) C   5                  0.00107     1.47254   
    95. RY*(   3) C   5                  0.00042     0.55213   
    96. RY*(   4) C   5                  0.00025     1.03623   
    97. RY*(   5) C   5                  0.00007     3.15082   
    98. RY*(   6) C   5                  0.00007     1.62104   
    99. RY*(   7) C   5                  0.00005     2.53351   
   100. RY*(   8) C   5                  0.00003     4.41578   
   101. RY*(   9) C   5                  0.00001     2.07457   
   102. RY*(  10) C   5                  0.00000     2.68441   
   103. RY*(  11) C   5                  0.00000     1.62087   
   104. RY*(  12) C   5                  0.00000    19.81618   
   105. RY*(  13) C   5                  0.00000     3.64850   
   106. RY*(   1) C   6                  0.00274     1.27409   
   107. RY*(   2) C   6                  0.00080     1.54247   
   108. RY*(   3) C   6                  0.00033     1.11504   
   109. RY*(   4) C   6                  0.00014     1.16603   
   110. RY*(   5) C   6                  0.00005     1.16452   
   111. RY*(   6) C   6                  0.00004     4.57455   
   112. RY*(   7) C   6                  0.00004     2.95786   
   113. RY*(   8) C   6                  0.00001     2.35295   
   114. RY*(   9) C   6                  0.00001     3.34248   
   115. RY*(  10) C   6                  0.00000     2.67737   
   116. RY*(  11) C   6                  0.00000     1.50413   
   117. RY*(  12) C   6                  0.00000    20.02902   
   118. RY*(  13) C   6                  0.00001     2.25558   
   119. RY*(   1) C   7                  0.00271     1.27943   
   120. RY*(   2) C   7                  0.00084     1.52963   
   121. RY*(   3) C   7                  0.00031     0.98175   
   122. RY*(   4) C   7                  0.00013     1.22133   
   123. RY*(   5) C   7                  0.00006     1.28598   
   124. RY*(   6) C   7                  0.00005     4.06799   
   125. RY*(   7) C   7                  0.00003     3.49835   
   126. RY*(   8) C   7                  0.00001     3.52365   
   127. RY*(   9) C   7                  0.00002     2.79574   
   128. RY*(  10) C   7                  0.00000     1.52306   
   129. RY*(  11) C   7                  0.00000     2.68877   
   130. RY*(  12) C   7                  0.00000    19.41478   
   131. RY*(  13) C   7                  0.00001     2.11273   
   132. RY*(   1) C   8                  0.00294     1.33364   
   133. RY*(   2) C   8                  0.00092     1.38710   
   134. RY*(   3) C   8                  0.00055     0.59301   
   135. RY*(   4) C   8                  0.00023     1.14679   
   136. RY*(   5) C   8                  0.00007     1.60072   
   137. RY*(   6) C   8                  0.00006     3.39832   
   138. RY*(   7) C   8                  0.00002     2.17135   
   139. RY*(   8) C   8                  0.00003     2.57285   
   140. RY*(   9) C   8                  0.00003     4.59480   
   141. RY*(  10) C   8                  0.00000     1.59433   
   142. RY*(  11) C   8                  0.00000    18.69432   
   143. RY*(  12) C   8                  0.00000     2.68277   
   144. RY*(  13) C   8                  0.00000     3.98566   
   145. RY*(   1) C   9                  0.00228     1.68698   
   146. RY*(   2) C   9                  0.00193     1.74845   
   147. RY*(   3) C   9                  0.00056     1.62372   
   148. RY*(   4) C   9                  0.00034     1.12702   
   149. RY*(   5) C   9                  0.00021     1.05811   
   150. RY*(   6) C   9                  0.00009     3.33339   
   151. RY*(   7) C   9                  0.00009     3.57436   
   152. RY*(   8) C   9                  0.00006     3.19758   
   153. RY*(   9) C   9                  0.00003     2.76052   
   154. RY*(  10) C   9                  0.00001     2.16552   
   155. RY*(  11) C   9                  0.00000     1.21799   
   156. RY*(  12) C   9                  0.00001    21.18134   
   157. RY*(  13) C   9                  0.00000     2.66598   
   158. RY*(   1) C  10                  0.00316     1.26303   
   159. RY*(   2) C  10                  0.00108     1.27958   
   160. RY*(   3) C  10                  0.00039     0.57460   
   161. RY*(   4) C  10                  0.00026     1.20982   
   162. RY*(   5) C  10                  0.00004     3.01418   
   163. RY*(   6) C  10                  0.00005     3.41912   
   164. RY*(   7) C  10                  0.00005     1.58462   
   165. RY*(   8) C  10                  0.00001     2.89266   
   166. RY*(   9) C  10                  0.00002     3.97363   
   167. RY*(  10) C  10                  0.00001     1.60172   
   168. RY*(  11) C  10                  0.00001     2.12680   
   169. RY*(  12) C  10                  0.00000    20.04879   
   170. RY*(  13) C  10                  0.00000     2.64317   
   171. RY*(   1) C  11                  0.00205     1.47294   
   172. RY*(   2) C  11                  0.00125     1.34735   
   173. RY*(   3) C  11                  0.00058     0.95740   
   174. RY*(   4) C  11                  0.00021     0.99026   
   175. RY*(   5) C  11                  0.00009     3.47349   
   176. RY*(   6) C  11                  0.00009     1.22764   
   177. RY*(   7) C  11                  0.00005     2.57238   
   178. RY*(   8) C  11                  0.00002     5.39561   
   179. RY*(   9) C  11                  0.00001     2.36865   
   180. RY*(  10) C  11                  0.00000     2.66195   
   181. RY*(  11) C  11                  0.00001     1.56274   
   182. RY*(  12) C  11                  0.00000    19.85062   
   183. RY*(  13) C  11                  0.00001     2.28160   
   184. RY*(   1) H  12                  0.00055     0.55807   
   185. RY*(   2) H  12                  0.00008     2.03026   
   186. RY*(   3) H  12                  0.00004     2.00696   
   187. RY*(   4) H  12                  0.00003     1.61925   
   188. RY*(   5) H  12                  0.00002     2.61759   
   189. RY*(   1) H  13                  0.00035     0.66282   
   190. RY*(   2) H  13                  0.00009     2.00555   
   191. RY*(   3) H  13                  0.00002     2.27655   
   192. RY*(   4) H  13                  0.00002     2.21439   
   193. RY*(   5) H  13                  0.00001     1.60883   
   194. RY*(   1) H  14                  0.00038     0.62390   
   195. RY*(   2) H  14                  0.00008     1.99512   
   196. RY*(   3) H  14                  0.00002     2.50392   
   197. RY*(   4) H  14                  0.00003     2.05157   
   198. RY*(   5) H  14                  0.00001     1.61232   
   199. RY*(   1) H  15                  0.00064     0.47541   
   200. RY*(   2) H  15                  0.00013     2.31642   
   201. RY*(   3) H  15                  0.00004     2.04790   
   202. RY*(   4) H  15                  0.00003     1.61846   
   203. RY*(   5) H  15                  0.00001     2.61034   
   204. RY*(   1) H  16                  0.00058     0.49254   
   205. RY*(   2) H  16                  0.00014     2.28724   
   206. RY*(   3) H  16                  0.00004     2.05774   
   207. RY*(   4) H  16                  0.00002     2.56149   
   208. RY*(   5) H  16                  0.00002     1.60671   
   209. RY*(   1) H  17                  0.00052     0.58032   
   210. RY*(   2) H  17                  0.00007     2.15695   
   211. RY*(   3) H  17                  0.00003     2.22866   
   212. RY*(   4) H  17                  0.00002     2.18197   
   213. RY*(   5) H  17                  0.00001     1.60999   
   214. BD*(   1) O   1 - C   2          0.00719     0.64395   
   215. BD*(   2) O   1 - C   2          0.04589     0.01695   
   216. BD*(   1) C   2 - O   3          0.05446     0.33931   
   217. BD*(   1) C   2 - C  11          0.02757     0.44833   
   218. BD*(   1) O   3 - C   4          0.01692     0.35162   
   219. BD*(   1) C   4 - C   5          0.01095     0.56100   
   220. BD*(   1) C   4 - C   9          0.01862     0.55486   
   221. BD*(   1) C   5 - C   6          0.00667     0.58602   
   222. BD*(   2) C   5 - C   6          0.04411     0.03297   
   223. BD*(   1) C   5 - H  12          0.00594     0.48064   
   224. BD*(   1) C   6 - C   7          0.00730     0.57871   
   225. BD*(   1) C   6 - H  13          0.00616     0.49450   
   226. BD*(   1) C   7 - C   8          0.00678     0.59237   
   227. BD*(   2) C   7 - C   8          0.04220     0.03713   
   228. BD*(   1) C   7 - H  14          0.00633     0.49498   
   229. BD*(   1) C   8 - C   9          0.01094     0.56089   
   230. BD*(   1) C   8 - H  15          0.00639     0.48297   
   231. BD*(   1) C   9 - C  10          0.01232     0.49468   
   232. BD*(   1) C  10 - C  11          0.00575     0.63534   
   233. BD*(   1) C  10 - H  16          0.00672     0.47367   
   234. BD*(   1) C  11 - H  17          0.00550     0.48388   
       -------------------------------
              Total Lewis   35.60667  ( 96.2342%)
        Valence non-Lewis    1.32752  (  3.5879%)
        Rydberg non-Lewis    0.06581  (  0.1779%)
       -------------------------------
            Total unit  1   37.00000  (100.0000%)
           Charge unit  1    1.00000

 Test job not archived.
 1\1\GINC-LEGACY-N0\SP\UM062X\6-311G(d,p)\C9H6O2(1+,2)\TWS35\14-Aug-202
 0\0\\#m062x/6-311g(d,p) charge pop=nbo nosymm nosymm scf=(maxcycle=999
 ) gfinput iop(6/7=3) scrf=(cpcm,solvent=water)\\coumarin\\1,2\O,0,0.99
 4629,0.112579,0.040491\C,0,2.186287,-0.036202,-0.022417\O,0,2.966347,1
 .091107,-0.068061\C,0,4.328757,1.044801,-0.140882\C,0,5.005744,2.25863
 6,-0.179986\C,0,6.389465,2.249249,-0.252074\C,0,7.096074,1.042101,-0.2
 8525\C,0,6.411012,-0.158493,-0.246758\C,0,5.01104,-0.173878,-0.173362\
 C,0,4.22231,-1.382573,-0.129486\C,0,2.882333,-1.318852,-0.057388\H,0,4
 .438559,3.18013,-0.15351\H,0,6.925843,3.189412,-0.282923\H,0,8.176761,
 1.049603,-0.341463\H,0,6.943766,-1.102013,-0.272659\H,0,4.73275,-2.339
 061,-0.156115\H,0,2.253131,-2.197045,-0.023825\\Version=EM64L-G09RevD.
 01\State=2-A\HF=-496.6981702\S2=0.785006\S2-1=0.\S2A=0.750787\RMSD=7.9
 15e-09\Dipole=2.8064641,-0.6680481,-0.1488236\Quadrupole=0.8378646,8.7
 510869,-9.5889515,6.8229752,-0.5618447,-0.4010157\PG=C01 [X(C9H6O2)]\\
 @


      SCIENCE SANS CONSCIENCE N'EST QUE RUINE DE L'AME.

                                                  -- RABELAIS
 Job cpu time:       0 days  0 hours  5 minutes 29.3 seconds.
 File lengths (MBytes):  RWF=     56 Int=      0 D2E=      0 Chk=      4 Scr=      1
 Normal termination of Gaussian 09 at Fri Aug 14 19:11:35 2020.
