 Entering Gaussian System, Link 0=g09
 Initial command:
 /ihome/crc/build/g09/g09-D.01/TAR/g09/l1.exe "/scratch/slurm-4550706/Gau-11802.inp" -scrdir="/scratch/slurm-4550706/"
 Entering Link 1 = /ihome/crc/build/g09/g09-D.01/TAR/g09/l1.exe PID=     11803.
  
 Copyright (c) 1988,1990,1992,1993,1995,1998,2003,2009,2013,
            Gaussian, Inc.  All Rights Reserved.
  
 This is part of the Gaussian(R) 09 program.  It is based on
 the Gaussian(R) 03 system (copyright 2003, Gaussian, Inc.),
 the Gaussian(R) 98 system (copyright 1998, Gaussian, Inc.),
 the Gaussian(R) 94 system (copyright 1995, Gaussian, Inc.),
 the Gaussian 92(TM) system (copyright 1992, Gaussian, Inc.),
 the Gaussian 90(TM) system (copyright 1990, Gaussian, Inc.),
 the Gaussian 88(TM) system (copyright 1988, Gaussian, Inc.),
 the Gaussian 86(TM) system (copyright 1986, Carnegie Mellon
 University), and the Gaussian 82(TM) system (copyright 1983,
 Carnegie Mellon University). Gaussian is a federally registered
 trademark of Gaussian, Inc.
  
 This software contains proprietary and confidential information,
 including trade secrets, belonging to Gaussian, Inc.
  
 This software is provided under written license and may be
 used, copied, transmitted, or stored only in accord with that
 written license.
  
 The following legend is applicable only to US Government
 contracts under FAR:
  
                    RESTRICTED RIGHTS LEGEND
  
 Use, reproduction and disclosure by the US Government is
 subject to restrictions as set forth in subparagraphs (a)
 and (c) of the Commercial Computer Software - Restricted
 Rights clause in FAR 52.227-19.
  
 Gaussian, Inc.
 340 Quinnipiac St., Bldg. 40, Wallingford CT 06492
  
  
 ---------------------------------------------------------------
 Warning -- This program may not be used in any manner that
 competes with the business of Gaussian, Inc. or will provide
 assistance to any competitor of Gaussian, Inc.  The licensee
 of this program is prohibited from giving any competitor of
 Gaussian, Inc. access to this program.  By using this program,
 the user acknowledges that Gaussian, Inc. is engaged in the
 business of creating and licensing software in the field of
 computational chemistry and represents and warrants to the
 licensee that it is not a competitor of Gaussian, Inc. and that
 it will not use this program in any manner prohibited above.
 ---------------------------------------------------------------
  

 Cite this work as:
 Gaussian 09, Revision D.01,
 M. J. Frisch, G. W. Trucks, H. B. Schlegel, G. E. Scuseria, 
 M. A. Robb, J. R. Cheeseman, G. Scalmani, V. Barone, B. Mennucci, 
 G. A. Petersson, H. Nakatsuji, M. Caricato, X. Li, H. P. Hratchian, 
 A. F. Izmaylov, J. Bloino, G. Zheng, J. L. Sonnenberg, M. Hada, 
 M. Ehara, K. Toyota, R. Fukuda, J. Hasegawa, M. Ishida, T. Nakajima, 
 Y. Honda, O. Kitao, H. Nakai, T. Vreven, J. A. Montgomery, Jr., 
 J. E. Peralta, F. Ogliaro, M. Bearpark, J. J. Heyd, E. Brothers, 
 K. N. Kudin, V. N. Staroverov, T. Keith, R. Kobayashi, J. Normand, 
 K. Raghavachari, A. Rendell, J. C. Burant, S. S. Iyengar, J. Tomasi, 
 M. Cossi, N. Rega, J. M. Millam, M. Klene, J. E. Knox, J. B. Cross, 
 V. Bakken, C. Adamo, J. Jaramillo, R. Gomperts, R. E. Stratmann, 
 O. Yazyev, A. J. Austin, R. Cammi, C. Pomelli, J. W. Ochterski, 
 R. L. Martin, K. Morokuma, V. G. Zakrzewski, G. A. Voth, 
 P. Salvador, J. J. Dannenberg, S. Dapprich, A. D. Daniels, 
 O. Farkas, J. B. Foresman, J. V. Ortiz, J. Cioslowski, 
 and D. J. Fox, Gaussian, Inc., Wallingford CT, 2013.
 
 ******************************************
 Gaussian 09:  EM64L-G09RevD.01 24-Apr-2013
                14-Aug-2020 
 ******************************************
 %Nproc=2
 Will use up to    2 processors via shared memory.
 %mem=6GB
 ----------------------------------------------------------------------
 #m062x/6-311g(d,p) charge pop=nbo nosymm nosymm scf=(maxcycle=999) gfi
 nput iop(6/7=3) scrf=(cpcm,solvent=water)
 ----------------------------------------------------------------------
 1/18=10,28=-2,38=1,125=101/1;
 2/12=2,15=-1,17=6,18=5,40=1/2;
 3/5=4,6=6,7=101,11=2,16=1,24=10,25=1,30=1,70=2101,72=1,74=-55/1,2,3;
 4//1;
 5/5=2,7=999,38=5,53=1/2;
 6/7=3,8=2,9=2,10=2,28=1,40=1/1,7;
 99/5=1,9=1/99;
 --------
 coumarin
 --------
 Symbolic Z-matrix:
 Charge = -1 Multiplicity = 2
 O                     0.99463   0.11258   0.04049 
 C                     2.18629  -0.0362   -0.02242 
 O                     2.96635   1.09111  -0.06806 
 C                     4.32876   1.0448   -0.14088 
 C                     5.00574   2.25864  -0.17999 
 C                     6.38947   2.24925  -0.25207 
 C                     7.09607   1.0421   -0.28525 
 C                     6.41101  -0.15849  -0.24676 
 C                     5.01104  -0.17388  -0.17336 
 C                     4.22231  -1.38257  -0.12949 
 C                     2.88233  -1.31885  -0.05739 
 H                     4.43856   3.18013  -0.15351 
 H                     6.92584   3.18941  -0.28292 
 H                     8.17676   1.0496   -0.34146 
 H                     6.94377  -1.10201  -0.27266 
 H                     4.73275  -2.33906  -0.15612 
 H                     2.25313  -2.19705  -0.02383 
 
 Background charge distribution read from input stream:
                          Input orientation:                          
 ---------------------------------------------------------------------
 Center     Atomic      Atomic             Coordinates (Angstroms)
 Number     Number       Type             X           Y           Z
 ---------------------------------------------------------------------
      1          8           0        0.994629    0.112579    0.040491
      2          6           0        2.186287   -0.036202   -0.022417
      3          8           0        2.966347    1.091107   -0.068061
      4          6           0        4.328757    1.044801   -0.140882
      5          6           0        5.005744    2.258636   -0.179986
      6          6           0        6.389465    2.249249   -0.252074
      7          6           0        7.096074    1.042101   -0.285250
      8          6           0        6.411012   -0.158493   -0.246758
      9          6           0        5.011040   -0.173878   -0.173362
     10          6           0        4.222310   -1.382573   -0.129486
     11          6           0        2.882333   -1.318852   -0.057388
     12          1           0        4.438559    3.180130   -0.153510
     13          1           0        6.925843    3.189412   -0.282923
     14          1           0        8.176761    1.049603   -0.341463
     15          1           0        6.943766   -1.102013   -0.272659
     16          1           0        4.732750   -2.339061   -0.156115
     17          1           0        2.253131   -2.197045   -0.023825
 ---------------------------------------------------------------------
                    Distance matrix (angstroms):
                    1          2          3          4          5
     1  O    0.000000
     2  C    1.202556   0.000000
     3  O    2.203854   1.371642   0.000000
     4  C    3.466748   2.402661   1.365140   0.000000
     5  C    4.554472   3.638743   2.352614   1.390409   0.000000
     6  C    5.809923   4.789857   3.618410   2.389472   1.385629
     7  C    6.180433   5.033669   4.135725   2.771082   2.420851
     8  C    5.430764   4.232444   3.668671   2.407262   2.796739
     9  C    4.032288   2.832131   2.406667   1.397048   2.432529
    10  C    3.561221   2.443270   2.774943   2.429734   3.724879
    11  C    2.371076   1.459758   2.411447   2.772358   4.162010
    12  H    4.616076   3.928703   2.557093   2.138188   1.082382
    13  H    6.689604   5.738976   4.486274   3.371111   2.136287
    14  H    7.253063   6.096437   5.217747   3.853231   3.397526
    15  H    6.079928   4.881821   4.546592   3.385919   3.880526
    16  H    4.474678   3.435915   3.859273   3.407927   4.605856
    17  H    2.631032   2.161877   3.364904   3.851168   5.239691
                    6          7          8          9         10
     6  C    0.000000
     7  C    1.399144   0.000000
     8  C    2.407844   1.382830   0.000000
     9  C    2.788870   2.416297   1.401979   0.000000
    10  C    4.231042   3.763220   2.510486   1.443940   0.000000
    11  C    5.006917   4.835456   3.719391   2.419878   1.343427
    12  H    2.163860   3.413343   3.878875   3.402572   4.567888
    13  H    1.082848   2.154049   3.387451   3.871717   5.313726
    14  H    2.154430   1.082174   2.141573   3.398081   4.647375
    15  H    3.396856   2.149554   1.083849   2.146328   2.739623
    16  H    4.879191   4.127255   2.753118   2.183062   1.084494
    17  H    6.077079   5.832196   4.636094   3.423686   2.133587
                   11         12         13         14         15
    11  C    0.000000
    12  H    4.761504   0.000000
    13  H    6.060139   2.490666   0.000000
    14  H    5.807000   4.306812   2.479315   0.000000
    15  H    4.072910   4.962561   4.291475   2.480819   0.000000
    16  H    2.115329   5.527027   5.948929   4.835143   2.536230
    17  H    1.080854   5.805767   7.135495   6.762471   4.823181
                   16         17
    16  H    0.000000
    17  H    2.487203   0.000000
 Stoichiometry    C9H6O2(1-,2)
 Framework group  C1[X(C9H6O2)]
 Deg. of freedom    45
 Full point group                 C1      NOp   1
 Largest Abelian subgroup         C1      NOp   1
 Largest concise Abelian subgroup C1      NOp   1
                         Standard orientation:                         
 ---------------------------------------------------------------------
 Center     Atomic      Atomic             Coordinates (Angstroms)
 Number     Number       Type             X           Y           Z
 ---------------------------------------------------------------------
      1          8           0       -3.216724   -0.818980   -0.001189
      2          6           0       -2.143822   -0.275821   -0.001143
      3          8           0       -1.027547   -1.072898    0.000355
      4          6           0        0.240956   -0.568411    0.001004
      5          6           0        1.289257   -1.481812    0.001221
      6          6           0        2.590224   -1.004893   -0.000082
      7          6           0        2.848213    0.370259   -0.001444
      8          6           0        1.796827    1.268482   -0.000655
      9          6           0        0.472152    0.809374    0.000264
     10          6           0       -0.679675    1.680154    0.001188
     11          6           0       -1.921175    1.166858    0.000031
     12          1           0        1.066145   -2.540949    0.002584
     13          1           0        3.413504   -1.708292    0.000011
     14          1           0        3.869275    0.728770   -0.002585
     15          1           0        1.980109    2.336721   -0.000714
     16          1           0       -0.521709    2.753080    0.003070
     17          1           0       -2.810898    1.780562    0.001995
 ---------------------------------------------------------------------
 Rotational constants (GHZ):      2.8466617      0.8908908      0.6785365
 Standard basis: 6-311G(d,p) (5D, 7F)
 AO basis set in the form of general basis input (Overlap normalization):
      1 0
 S   6 1.00       0.000000000000
      0.8588500000D+04  0.1895150083D-02
      0.1297230000D+04  0.1438590063D-01
      0.2992960000D+03  0.7073200310D-01
      0.8737710000D+02  0.2400010105D+00
      0.2567890000D+02  0.5947970261D+00
      0.3740040000D+01  0.2808020123D+00
 SP   3 1.00       0.000000000000
      0.4211750000D+02  0.1138890124D+00  0.3651139738D-01
      0.9628370000D+01  0.9208111006D+00  0.2371529830D+00
      0.2853320000D+01 -0.3274470358D-02  0.8197019412D+00
 SP   1 1.00       0.000000000000
      0.9056610000D+00  0.1000000000D+01  0.1000000000D+01
 SP   1 1.00       0.000000000000
      0.2556110000D+00  0.1000000000D+01  0.1000000000D+01
 D   1 1.00       0.000000000000
      0.1292000000D+01  0.1000000000D+01
 ****
      2 0
 S   6 1.00       0.000000000000
      0.4563240000D+04  0.1966650249D-02
      0.6820240000D+03  0.1523060193D-01
      0.1549730000D+03  0.7612690966D-01
      0.4445530000D+02  0.2608010331D+00
      0.1302900000D+02  0.6164620782D+00
      0.1827730000D+01  0.2210060280D+00
 SP   3 1.00       0.000000000000
      0.2096420000D+02  0.1146600807D+00  0.4024869267D-01
      0.4803310000D+01  0.9199996477D+00  0.2375939567D+00
      0.1459330000D+01 -0.3030682134D-02  0.8158538515D+00
 SP   1 1.00       0.000000000000
      0.4834560000D+00  0.1000000000D+01  0.1000000000D+01
 SP   1 1.00       0.000000000000
      0.1455850000D+00  0.1000000000D+01  0.1000000000D+01
 D   1 1.00       0.000000000000
      0.6260000000D+00  0.1000000000D+01
 ****
      3 0
 S   6 1.00       0.000000000000
      0.8588500000D+04  0.1895150083D-02
      0.1297230000D+04  0.1438590063D-01
      0.2992960000D+03  0.7073200310D-01
      0.8737710000D+02  0.2400010105D+00
      0.2567890000D+02  0.5947970261D+00
      0.3740040000D+01  0.2808020123D+00
 SP   3 1.00       0.000000000000
      0.4211750000D+02  0.1138890124D+00  0.3651139738D-01
      0.9628370000D+01  0.9208111006D+00  0.2371529830D+00
      0.2853320000D+01 -0.3274470358D-02  0.8197019412D+00
 SP   1 1.00       0.000000000000
      0.9056610000D+00  0.1000000000D+01  0.1000000000D+01
 SP   1 1.00       0.000000000000
      0.2556110000D+00  0.1000000000D+01  0.1000000000D+01
 D   1 1.00       0.000000000000
      0.1292000000D+01  0.1000000000D+01
 ****
      4 0
 S   6 1.00       0.000000000000
      0.4563240000D+04  0.1966650249D-02
      0.6820240000D+03  0.1523060193D-01
      0.1549730000D+03  0.7612690966D-01
      0.4445530000D+02  0.2608010331D+00
      0.1302900000D+02  0.6164620782D+00
      0.1827730000D+01  0.2210060280D+00
 SP   3 1.00       0.000000000000
      0.2096420000D+02  0.1146600807D+00  0.4024869267D-01
      0.4803310000D+01  0.9199996477D+00  0.2375939567D+00
      0.1459330000D+01 -0.3030682134D-02  0.8158538515D+00
 SP   1 1.00       0.000000000000
      0.4834560000D+00  0.1000000000D+01  0.1000000000D+01
 SP   1 1.00       0.000000000000
      0.1455850000D+00  0.1000000000D+01  0.1000000000D+01
 D   1 1.00       0.000000000000
      0.6260000000D+00  0.1000000000D+01
 ****
      5 0
 S   6 1.00       0.000000000000
      0.4563240000D+04  0.1966650249D-02
      0.6820240000D+03  0.1523060193D-01
      0.1549730000D+03  0.7612690966D-01
      0.4445530000D+02  0.2608010331D+00
      0.1302900000D+02  0.6164620782D+00
      0.1827730000D+01  0.2210060280D+00
 SP   3 1.00       0.000000000000
      0.2096420000D+02  0.1146600807D+00  0.4024869267D-01
      0.4803310000D+01  0.9199996477D+00  0.2375939567D+00
      0.1459330000D+01 -0.3030682134D-02  0.8158538515D+00
 SP   1 1.00       0.000000000000
      0.4834560000D+00  0.1000000000D+01  0.1000000000D+01
 SP   1 1.00       0.000000000000
      0.1455850000D+00  0.1000000000D+01  0.1000000000D+01
 D   1 1.00       0.000000000000
      0.6260000000D+00  0.1000000000D+01
 ****
      6 0
 S   6 1.00       0.000000000000
      0.4563240000D+04  0.1966650249D-02
      0.6820240000D+03  0.1523060193D-01
      0.1549730000D+03  0.7612690966D-01
      0.4445530000D+02  0.2608010331D+00
      0.1302900000D+02  0.6164620782D+00
      0.1827730000D+01  0.2210060280D+00
 SP   3 1.00       0.000000000000
      0.2096420000D+02  0.1146600807D+00  0.4024869267D-01
      0.4803310000D+01  0.9199996477D+00  0.2375939567D+00
      0.1459330000D+01 -0.3030682134D-02  0.8158538515D+00
 SP   1 1.00       0.000000000000
      0.4834560000D+00  0.1000000000D+01  0.1000000000D+01
 SP   1 1.00       0.000000000000
      0.1455850000D+00  0.1000000000D+01  0.1000000000D+01
 D   1 1.00       0.000000000000
      0.6260000000D+00  0.1000000000D+01
 ****
      7 0
 S   6 1.00       0.000000000000
      0.4563240000D+04  0.1966650249D-02
      0.6820240000D+03  0.1523060193D-01
      0.1549730000D+03  0.7612690966D-01
      0.4445530000D+02  0.2608010331D+00
      0.1302900000D+02  0.6164620782D+00
      0.1827730000D+01  0.2210060280D+00
 SP   3 1.00       0.000000000000
      0.2096420000D+02  0.1146600807D+00  0.4024869267D-01
      0.4803310000D+01  0.9199996477D+00  0.2375939567D+00
      0.1459330000D+01 -0.3030682134D-02  0.8158538515D+00
 SP   1 1.00       0.000000000000
      0.4834560000D+00  0.1000000000D+01  0.1000000000D+01
 SP   1 1.00       0.000000000000
      0.1455850000D+00  0.1000000000D+01  0.1000000000D+01
 D   1 1.00       0.000000000000
      0.6260000000D+00  0.1000000000D+01
 ****
      8 0
 S   6 1.00       0.000000000000
      0.4563240000D+04  0.1966650249D-02
      0.6820240000D+03  0.1523060193D-01
      0.1549730000D+03  0.7612690966D-01
      0.4445530000D+02  0.2608010331D+00
      0.1302900000D+02  0.6164620782D+00
      0.1827730000D+01  0.2210060280D+00
 SP   3 1.00       0.000000000000
      0.2096420000D+02  0.1146600807D+00  0.4024869267D-01
      0.4803310000D+01  0.9199996477D+00  0.2375939567D+00
      0.1459330000D+01 -0.3030682134D-02  0.8158538515D+00
 SP   1 1.00       0.000000000000
      0.4834560000D+00  0.1000000000D+01  0.1000000000D+01
 SP   1 1.00       0.000000000000
      0.1455850000D+00  0.1000000000D+01  0.1000000000D+01
 D   1 1.00       0.000000000000
      0.6260000000D+00  0.1000000000D+01
 ****
      9 0
 S   6 1.00       0.000000000000
      0.4563240000D+04  0.1966650249D-02
      0.6820240000D+03  0.1523060193D-01
      0.1549730000D+03  0.7612690966D-01
      0.4445530000D+02  0.2608010331D+00
      0.1302900000D+02  0.6164620782D+00
      0.1827730000D+01  0.2210060280D+00
 SP   3 1.00       0.000000000000
      0.2096420000D+02  0.1146600807D+00  0.4024869267D-01
      0.4803310000D+01  0.9199996477D+00  0.2375939567D+00
      0.1459330000D+01 -0.3030682134D-02  0.8158538515D+00
 SP   1 1.00       0.000000000000
      0.4834560000D+00  0.1000000000D+01  0.1000000000D+01
 SP   1 1.00       0.000000000000
      0.1455850000D+00  0.1000000000D+01  0.1000000000D+01
 D   1 1.00       0.000000000000
      0.6260000000D+00  0.1000000000D+01
 ****
     10 0
 S   6 1.00       0.000000000000
      0.4563240000D+04  0.1966650249D-02
      0.6820240000D+03  0.1523060193D-01
      0.1549730000D+03  0.7612690966D-01
      0.4445530000D+02  0.2608010331D+00
      0.1302900000D+02  0.6164620782D+00
      0.1827730000D+01  0.2210060280D+00
 SP   3 1.00       0.000000000000
      0.2096420000D+02  0.1146600807D+00  0.4024869267D-01
      0.4803310000D+01  0.9199996477D+00  0.2375939567D+00
      0.1459330000D+01 -0.3030682134D-02  0.8158538515D+00
 SP   1 1.00       0.000000000000
      0.4834560000D+00  0.1000000000D+01  0.1000000000D+01
 SP   1 1.00       0.000000000000
      0.1455850000D+00  0.1000000000D+01  0.1000000000D+01
 D   1 1.00       0.000000000000
      0.6260000000D+00  0.1000000000D+01
 ****
     11 0
 S   6 1.00       0.000000000000
      0.4563240000D+04  0.1966650249D-02
      0.6820240000D+03  0.1523060193D-01
      0.1549730000D+03  0.7612690966D-01
      0.4445530000D+02  0.2608010331D+00
      0.1302900000D+02  0.6164620782D+00
      0.1827730000D+01  0.2210060280D+00
 SP   3 1.00       0.000000000000
      0.2096420000D+02  0.1146600807D+00  0.4024869267D-01
      0.4803310000D+01  0.9199996477D+00  0.2375939567D+00
      0.1459330000D+01 -0.3030682134D-02  0.8158538515D+00
 SP   1 1.00       0.000000000000
      0.4834560000D+00  0.1000000000D+01  0.1000000000D+01
 SP   1 1.00       0.000000000000
      0.1455850000D+00  0.1000000000D+01  0.1000000000D+01
 D   1 1.00       0.000000000000
      0.6260000000D+00  0.1000000000D+01
 ****
     12 0
 S   3 1.00       0.000000000000
      0.3386500000D+02  0.2549381454D-01
      0.5094790000D+01  0.1903731086D+00
      0.1158790000D+01  0.8521614860D+00
 S   1 1.00       0.000000000000
      0.3258400000D+00  0.1000000000D+01
 S   1 1.00       0.000000000000
      0.1027410000D+00  0.1000000000D+01
 P   1 1.00       0.000000000000
      0.7500000000D+00  0.1000000000D+01
 ****
     13 0
 S   3 1.00       0.000000000000
      0.3386500000D+02  0.2549381454D-01
      0.5094790000D+01  0.1903731086D+00
      0.1158790000D+01  0.8521614860D+00
 S   1 1.00       0.000000000000
      0.3258400000D+00  0.1000000000D+01
 S   1 1.00       0.000000000000
      0.1027410000D+00  0.1000000000D+01
 P   1 1.00       0.000000000000
      0.7500000000D+00  0.1000000000D+01
 ****
     14 0
 S   3 1.00       0.000000000000
      0.3386500000D+02  0.2549381454D-01
      0.5094790000D+01  0.1903731086D+00
      0.1158790000D+01  0.8521614860D+00
 S   1 1.00       0.000000000000
      0.3258400000D+00  0.1000000000D+01
 S   1 1.00       0.000000000000
      0.1027410000D+00  0.1000000000D+01
 P   1 1.00       0.000000000000
      0.7500000000D+00  0.1000000000D+01
 ****
     15 0
 S   3 1.00       0.000000000000
      0.3386500000D+02  0.2549381454D-01
      0.5094790000D+01  0.1903731086D+00
      0.1158790000D+01  0.8521614860D+00
 S   1 1.00       0.000000000000
      0.3258400000D+00  0.1000000000D+01
 S   1 1.00       0.000000000000
      0.1027410000D+00  0.1000000000D+01
 P   1 1.00       0.000000000000
      0.7500000000D+00  0.1000000000D+01
 ****
     16 0
 S   3 1.00       0.000000000000
      0.3386500000D+02  0.2549381454D-01
      0.5094790000D+01  0.1903731086D+00
      0.1158790000D+01  0.8521614860D+00
 S   1 1.00       0.000000000000
      0.3258400000D+00  0.1000000000D+01
 S   1 1.00       0.000000000000
      0.1027410000D+00  0.1000000000D+01
 P   1 1.00       0.000000000000
      0.7500000000D+00  0.1000000000D+01
 ****
     17 0
 S   3 1.00       0.000000000000
      0.3386500000D+02  0.2549381454D-01
      0.5094790000D+01  0.1903731086D+00
      0.1158790000D+01  0.8521614860D+00
 S   1 1.00       0.000000000000
      0.3258400000D+00  0.1000000000D+01
 S   1 1.00       0.000000000000
      0.1027410000D+00  0.1000000000D+01
 P   1 1.00       0.000000000000
      0.7500000000D+00  0.1000000000D+01
 ****

 There are   245 symmetry adapted cartesian basis functions of A   symmetry.
 There are   234 symmetry adapted basis functions of A   symmetry.
   234 basis functions,   400 primitive gaussians,   245 cartesian basis functions
    39 alpha electrons       38 beta electrons
       nuclear repulsion energy       555.2326823620 Hartrees.
 NAtoms=   17 NActive=   17 NUniq=   17 SFac= 1.00D+00 NAtFMM=   60 NAOKFM=F Big=F
 Integral buffers will be    131072 words long.
 Raffenetti 2 integral format.
 Two-electron integral symmetry is turned on.
 ------------------------------------------------------------------------------
 Polarizable Continuum Model (PCM)
 =================================
 Model                : C-PCM.
 Atomic radii         : UFF (Universal Force Field).
 Polarization charges : Total charges.
 Charge compensation  : None.
 Solution method      : On-the-fly selection.
 Cavity type          : Scaled VdW (van der Waals Surface) (Alpha=1.100).
 Cavity algorithm     : GePol (No added spheres)
                        Default sphere list used, NSphG=   17.
                        Lebedev-Laikov grids with approx.  5.0 points / Ang**2.
                        Smoothing algorithm: Karplus/York (Gamma=1.0000).
                        Polarization charges: spherical gaussians, with
                                              point-specific exponents (IZeta= 3).
                        Self-potential: point-specific (ISelfS= 7).
                        Self-field    : sphere-specific E.n sum rule (ISelfD= 2).
 Solvent              : Water, Eps=  78.355300 Eps(inf)=   1.777849
 ------------------------------------------------------------------------------
 Spheres list:
 ISph  on   Nord     Re0    Alpha      Xe            Ye            Ze
    1   O      1    1.7500  1.100     -3.216724     -0.818980     -0.001189
    2   C      2    1.9255  1.100     -2.143822     -0.275821     -0.001143
    3   O      3    1.7500  1.100     -1.027547     -1.072898      0.000355
    4   C      4    1.9255  1.100      0.240956     -0.568411      0.001004
    5   C      5    1.9255  1.100      1.289257     -1.481812      0.001221
    6   C      6    1.9255  1.100      2.590224     -1.004893     -0.000082
    7   C      7    1.9255  1.100      2.848213      0.370259     -0.001444
    8   C      8    1.9255  1.100      1.796827      1.268482     -0.000655
    9   C      9    1.9255  1.100      0.472152      0.809374      0.000264
   10   C     10    1.9255  1.100     -0.679675      1.680154      0.001188
   11   C     11    1.9255  1.100     -1.921175      1.166858      0.000031
   12   H     12    1.4430  1.100      1.066145     -2.540949      0.002584
   13   H     13    1.4430  1.100      3.413504     -1.708292      0.000011
   14   H     14    1.4430  1.100      3.869275      0.728770     -0.002585
   15   H     15    1.4430  1.100      1.980109      2.336721     -0.000714
   16   H     16    1.4430  1.100     -0.521709      2.753080      0.003070
   17   H     17    1.4430  1.100     -2.810898      1.780562      0.001995
 ------------------------------------------------------------------------------
 One-electron integrals computed using PRISM.
 NBasis=   234 RedAO= T EigKep=  1.73D-04  NBF=   234
 NBsUse=   234 1.00D-06 EigRej= -1.00D+00 NBFU=   234
 ExpMin= 1.03D-01 ExpMax= 8.59D+03 ExpMxC= 1.30D+03 IAcc=1 IRadAn=         1 AccDes= 0.00D+00
 Harris functional with IExCor= 1009 and IRadAn=       1 diagonalized for initial guess.
 HarFok:  IExCor= 1009 AccDes= 0.00D+00 IRadAn=         1 IDoV= 1 UseB2=F ITyADJ=14
 ICtDFT=  3500011 ScaDFX=  1.000000  1.000000  1.000000  1.000000
 FoFCou: FMM=F IPFlag=           0 FMFlag=      100000 FMFlg1=           0
         NFxFlg=           0 DoJE=T BraDBF=F KetDBF=T FulRan=T
         wScrn=  0.000000 ICntrl=     500 IOpCl=  0 I1Cent=   200000004 NGrid=           0
         NMat0=    1 NMatS0=      1 NMatT0=    0 NMatD0=    1 NMtDS0=    0 NMtDT0=    0
 Petite list used in FoFCou.
 Initial guess <Sx>= 0.0000 <Sy>= 0.0000 <Sz>= 0.5000 <S**2>= 0.7500 S= 0.5000
 Keep R1 and R2 ints in memory in canonical form, NReq=764633749.
 Requested convergence on RMS density matrix=1.00D-08 within 999 cycles.
 Requested convergence on MAX density matrix=1.00D-06.
 Requested convergence on             energy=1.00D-06.
 No special actions if energy rises.
 Inv3:  Mode=1 IEnd=     7059468.
 Iteration    1 A*A^-1 deviation from unit magnitude is 6.22D-15 for    207.
 Iteration    1 A*A^-1 deviation from orthogonality  is 4.11D-15 for   1059   1019.
 Iteration    1 A^-1*A deviation from unit magnitude is 6.22D-15 for    207.
 Iteration    1 A^-1*A deviation from orthogonality  is 3.36D-15 for   1319   1265.
 Error on total polarization charges =  0.01280
 SCF Done:  E(UM062X) =  -497.037142546     A.U. after   19 cycles
            NFock= 19  Conv=0.47D-08     -V/T= 2.0027
 <Sx>= 0.0000 <Sy>= 0.0000 <Sz>= 0.5000 <S**2>= 0.7639 S= 0.5069
 <L.S>= 0.000000000000E+00
 Annihilation of the first spin contaminant:
 S**2 before annihilation     0.7639,   after     0.7501

 **********************************************************************

            Population analysis using the SCF density.

 **********************************************************************

 Orbital symmetries:
 Alpha Orbitals:
       Occupied  (A) (A) (A) (A) (A) (A) (A) (A) (A) (A) (A) (A)
                 (A) (A) (A) (A) (A) (A) (A) (A) (A) (A) (A) (A)
                 (A) (A) (A) (A) (A) (A) (A) (A) (A) (A) (A) (A)
                 (A) (A) (A)
       Virtual   (A) (A) (A) (A) (A) (A) (A) (A) (A) (A) (A) (A)
                 (A) (A) (A) (A) (A) (A) (A) (A) (A) (A) (A) (A)
                 (A) (A) (A) (A) (A) (A) (A) (A) (A) (A) (A) (A)
                 (A) (A) (A) (A) (A) (A) (A) (A) (A) (A) (A) (A)
                 (A) (A) (A) (A) (A) (A) (A) (A) (A) (A) (A) (A)
                 (A) (A) (A) (A) (A) (A) (A) (A) (A) (A) (A) (A)
                 (A) (A) (A) (A) (A) (A) (A) (A) (A) (A) (A) (A)
                 (A) (A) (A) (A) (A) (A) (A) (A) (A) (A) (A) (A)
                 (A) (A) (A) (A) (A) (A) (A) (A) (A) (A) (A) (A)
                 (A) (A) (A) (A) (A) (A) (A) (A) (A) (A) (A) (A)
                 (A) (A) (A) (A) (A) (A) (A) (A) (A) (A) (A) (A)
                 (A) (A) (A) (A) (A) (A) (A) (A) (A) (A) (A) (A)
                 (A) (A) (A) (A) (A) (A) (A) (A) (A) (A) (A) (A)
                 (A) (A) (A) (A) (A) (A) (A) (A) (A) (A) (A) (A)
                 (A) (A) (A) (A) (A) (A) (A) (A) (A) (A) (A) (A)
                 (A) (A) (A) (A) (A) (A) (A) (A) (A) (A) (A) (A)
                 (A) (A) (A)
 Beta  Orbitals:
       Occupied  (A) (A) (A) (A) (A) (A) (A) (A) (A) (A) (A) (A)
                 (A) (A) (A) (A) (A) (A) (A) (A) (A) (A) (A) (A)
                 (A) (A) (A) (A) (A) (A) (A) (A) (A) (A) (A) (A)
                 (A) (A)
       Virtual   (A) (A) (A) (A) (A) (A) (A) (A) (A) (A) (A) (A)
                 (A) (A) (A) (A) (A) (A) (A) (A) (A) (A) (A) (A)
                 (A) (A) (A) (A) (A) (A) (A) (A) (A) (A) (A) (A)
                 (A) (A) (A) (A) (A) (A) (A) (A) (A) (A) (A) (A)
                 (A) (A) (A) (A) (A) (A) (A) (A) (A) (A) (A) (A)
                 (A) (A) (A) (A) (A) (A) (A) (A) (A) (A) (A) (A)
                 (A) (A) (A) (A) (A) (A) (A) (A) (A) (A) (A) (A)
                 (A) (A) (A) (A) (A) (A) (A) (A) (A) (A) (A) (A)
                 (A) (A) (A) (A) (A) (A) (A) (A) (A) (A) (A) (A)
                 (A) (A) (A) (A) (A) (A) (A) (A) (A) (A) (A) (A)
                 (A) (A) (A) (A) (A) (A) (A) (A) (A) (A) (A) (A)
                 (A) (A) (A) (A) (A) (A) (A) (A) (A) (A) (A) (A)
                 (A) (A) (A) (A) (A) (A) (A) (A) (A) (A) (A) (A)
                 (A) (A) (A) (A) (A) (A) (A) (A) (A) (A) (A) (A)
                 (A) (A) (A) (A) (A) (A) (A) (A) (A) (A) (A) (A)
                 (A) (A) (A) (A) (A) (A) (A) (A) (A) (A) (A) (A)
                 (A) (A) (A) (A)
 The electronic state is 2-A.
 Alpha  occ. eigenvalues --  -19.64457 -19.55654 -10.62762 -10.58399 -10.52673
 Alpha  occ. eigenvalues --  -10.52269 -10.52224 -10.51757 -10.51515 -10.50164
 Alpha  occ. eigenvalues --  -10.49220  -1.21412  -1.11871  -0.94766  -0.88207
 Alpha  occ. eigenvalues --   -0.83243  -0.81334  -0.71089  -0.69650  -0.67918
 Alpha  occ. eigenvalues --   -0.60597  -0.57684  -0.54242  -0.53389  -0.51252
 Alpha  occ. eigenvalues --   -0.49825  -0.48679  -0.47143  -0.45507  -0.44084
 Alpha  occ. eigenvalues --   -0.42209  -0.40022  -0.39703  -0.37462  -0.35532
 Alpha  occ. eigenvalues --   -0.32015  -0.28878  -0.26733  -0.11785
 Alpha virt. eigenvalues --    0.04467   0.05449   0.09677   0.11035   0.12793
 Alpha virt. eigenvalues --    0.14700   0.15366   0.15980   0.18759   0.22657
 Alpha virt. eigenvalues --    0.24538   0.27411   0.30634   0.31224   0.33181
 Alpha virt. eigenvalues --    0.33502   0.35021   0.36992   0.40405   0.41433
 Alpha virt. eigenvalues --    0.41502   0.43512   0.45114   0.45208   0.47653
 Alpha virt. eigenvalues --    0.48143   0.48600   0.49563   0.50926   0.52052
 Alpha virt. eigenvalues --    0.52464   0.52751   0.52848   0.54885   0.57636
 Alpha virt. eigenvalues --    0.59133   0.59271   0.60876   0.63361   0.64919
 Alpha virt. eigenvalues --    0.66293   0.66932   0.68478   0.69560   0.70257
 Alpha virt. eigenvalues --    0.70458   0.70926   0.72928   0.77213   0.77729
 Alpha virt. eigenvalues --    0.81331   0.82045   0.84628   0.86133   0.87756
 Alpha virt. eigenvalues --    0.89085   0.91372   0.94372   0.94675   0.97869
 Alpha virt. eigenvalues --    0.98546   1.00698   1.02469   1.03771   1.05342
 Alpha virt. eigenvalues --    1.06708   1.08868   1.13141   1.13539   1.14396
 Alpha virt. eigenvalues --    1.14610   1.16010   1.20654   1.23323   1.23366
 Alpha virt. eigenvalues --    1.29416   1.32367   1.34464   1.38794   1.44185
 Alpha virt. eigenvalues --    1.44834   1.49896   1.51671   1.54063   1.55322
 Alpha virt. eigenvalues --    1.56143   1.60307   1.61024   1.62838   1.63293
 Alpha virt. eigenvalues --    1.66049   1.66642   1.66964   1.68519   1.69560
 Alpha virt. eigenvalues --    1.76899   1.78515   1.78980   1.80170   1.81763
 Alpha virt. eigenvalues --    1.82559   1.84896   1.87705   1.90813   1.93668
 Alpha virt. eigenvalues --    1.95073   1.96439   1.97028   1.98056   1.98545
 Alpha virt. eigenvalues --    2.00682   2.03233   2.04658   2.06559   2.10812
 Alpha virt. eigenvalues --    2.16462   2.17748   2.20243   2.21653   2.31053
 Alpha virt. eigenvalues --    2.32381   2.35082   2.39184   2.40633   2.43488
 Alpha virt. eigenvalues --    2.48272   2.55673   2.59751   2.60405   2.63542
 Alpha virt. eigenvalues --    2.64359   2.65189   2.66181   2.66711   2.67982
 Alpha virt. eigenvalues --    2.70038   2.70654   2.74183   2.75595   2.77184
 Alpha virt. eigenvalues --    2.82893   2.84297   2.86017   2.89410   2.93918
 Alpha virt. eigenvalues --    2.96098   2.97066   3.00614   3.03507   3.04210
 Alpha virt. eigenvalues --    3.06064   3.13506   3.15206   3.18245   3.24442
 Alpha virt. eigenvalues --    3.26625   3.31661   3.36607   3.41745   3.45048
 Alpha virt. eigenvalues --    3.45092   3.54090   3.55128   3.57499   3.60931
 Alpha virt. eigenvalues --    3.62971   3.67759   3.72951   3.79139   4.04577
 Alpha virt. eigenvalues --    4.07385   4.08165   4.09578   4.17913   4.24736
 Alpha virt. eigenvalues --    4.28298   4.56760   4.87899   5.00550   5.06255
 Alpha virt. eigenvalues --    5.17658   5.40387   5.75111   6.02644  23.59126
 Alpha virt. eigenvalues --   23.86939  23.97807  24.01457  24.04777  24.15909
 Alpha virt. eigenvalues --   24.20891  24.29134  24.35225  50.02211  50.17486
  Beta  occ. eigenvalues --  -19.64303 -19.55449 -10.62732 -10.58341 -10.52715
  Beta  occ. eigenvalues --  -10.52320 -10.52245 -10.51655 -10.51392 -10.49965
  Beta  occ. eigenvalues --  -10.49101  -1.20990  -1.11324  -0.94500  -0.87577
  Beta  occ. eigenvalues --   -0.82996  -0.80856  -0.70844  -0.68705  -0.67635
  Beta  occ. eigenvalues --   -0.60207  -0.57437  -0.53753  -0.52269  -0.50951
  Beta  occ. eigenvalues --   -0.49546  -0.48356  -0.46667  -0.45147  -0.42996
  Beta  occ. eigenvalues --   -0.41923  -0.39769  -0.38110  -0.37199  -0.33549
  Beta  occ. eigenvalues --   -0.31629  -0.27678  -0.24730
  Beta virt. eigenvalues --    0.01369   0.04916   0.07741   0.09668   0.11050
  Beta virt. eigenvalues --    0.12773   0.14665   0.15941   0.17534   0.18737
  Beta virt. eigenvalues --    0.22947   0.25653   0.27631   0.30895   0.31349
  Beta virt. eigenvalues --    0.33334   0.33773   0.35287   0.37259   0.40492
  Beta virt. eigenvalues --    0.41653   0.41745   0.43697   0.45419   0.45546
  Beta virt. eigenvalues --    0.48061   0.48543   0.48727   0.49859   0.51239
  Beta virt. eigenvalues --    0.52236   0.52890   0.53145   0.53247   0.55603
  Beta virt. eigenvalues --    0.57987   0.59319   0.59719   0.61086   0.63900
  Beta virt. eigenvalues --    0.65071   0.66470   0.67339   0.68928   0.69885
  Beta virt. eigenvalues --    0.70327   0.70817   0.71396   0.73704   0.77331
  Beta virt. eigenvalues --    0.77892   0.81764   0.82357   0.84879   0.86705
  Beta virt. eigenvalues --    0.87929   0.89474   0.91687   0.94661   0.95456
  Beta virt. eigenvalues --    0.98012   0.98537   1.01308   1.02561   1.04426
  Beta virt. eigenvalues --    1.05595   1.07459   1.08934   1.13734   1.13814
  Beta virt. eigenvalues --    1.14721   1.15652   1.16371   1.21165   1.23573
  Beta virt. eigenvalues --    1.24233   1.29540   1.33151   1.34656   1.38955
  Beta virt. eigenvalues --    1.44965   1.45218   1.50079   1.51918   1.54329
  Beta virt. eigenvalues --    1.55878   1.56449   1.60480   1.61214   1.63128
  Beta virt. eigenvalues --    1.63446   1.66201   1.67148   1.67415   1.68838
  Beta virt. eigenvalues --    1.69751   1.77251   1.78737   1.79150   1.80744
  Beta virt. eigenvalues --    1.82025   1.83286   1.85011   1.87880   1.90914
  Beta virt. eigenvalues --    1.94063   1.95706   1.96611   1.97584   1.98745
  Beta virt. eigenvalues --    1.99017   2.01413   2.03581   2.04915   2.07078
  Beta virt. eigenvalues --    2.11127   2.17075   2.19031   2.21310   2.22108
  Beta virt. eigenvalues --    2.31349   2.33074   2.35281   2.39510   2.41294
  Beta virt. eigenvalues --    2.43707   2.48596   2.55873   2.60289   2.61399
  Beta virt. eigenvalues --    2.63809   2.64621   2.66035   2.66580   2.66850
  Beta virt. eigenvalues --    2.68160   2.70334   2.70891   2.75745   2.76263
  Beta virt. eigenvalues --    2.77854   2.84440   2.84659   2.86226   2.90014
  Beta virt. eigenvalues --    2.94902   2.96858   2.98107   3.01078   3.03890
  Beta virt. eigenvalues --    3.05431   3.06544   3.14055   3.15890   3.18595
  Beta virt. eigenvalues --    3.24854   3.26788   3.32084   3.36984   3.41896
  Beta virt. eigenvalues --    3.45255   3.45672   3.54377   3.55363   3.57788
  Beta virt. eigenvalues --    3.61305   3.63270   3.68164   3.73441   3.79349
  Beta virt. eigenvalues --    4.05247   4.07911   4.08972   4.09975   4.18339
  Beta virt. eigenvalues --    4.25791   4.28671   4.58588   4.88548   5.01360
  Beta virt. eigenvalues --    5.07099   5.17975   5.40636   5.75487   6.02754
  Beta virt. eigenvalues --   23.59167  23.87116  23.98075  24.01529  24.04900
  Beta virt. eigenvalues --   24.15998  24.21004  24.29261  24.35580  50.02067
  Beta virt. eigenvalues --   50.17223
     Alpha Molecular Orbital Coefficients:
                           1         2         3         4         5
                           O         O         O         O         O
     Eigenvalues --   -19.64457 -19.55654 -10.62762 -10.58399 -10.52673
   1 1   O  1S         -0.00006   0.55286  -0.00013   0.00000   0.00000
   2        2S         -0.00002   0.46945  -0.00015   0.00001   0.00001
   3        2PX         0.00001   0.00119   0.00052   0.00000   0.00000
   4        2PY         0.00001   0.00054   0.00028  -0.00001   0.00000
   5        2PZ         0.00000   0.00000   0.00000   0.00000   0.00000
   6        3S         -0.00019   0.00915   0.00071  -0.00007  -0.00009
   7        3PX        -0.00009   0.00028  -0.00110   0.00000  -0.00001
   8        3PY        -0.00005   0.00018  -0.00059   0.00004   0.00000
   9        3PZ         0.00000   0.00000   0.00000   0.00000   0.00000
  10        4S          0.00053  -0.00614  -0.00525   0.00038   0.00035
  11        4PX        -0.00005  -0.00097  -0.00197   0.00020   0.00003
  12        4PY         0.00031  -0.00067  -0.00046  -0.00044  -0.00010
  13        4PZ         0.00000   0.00000   0.00000   0.00000   0.00000
  14        5D 0        0.00000  -0.00011   0.00042   0.00001   0.00001
  15        5D+1        0.00000   0.00000   0.00000   0.00000   0.00000
  16        5D-1        0.00000   0.00000   0.00000   0.00000   0.00000
  17        5D+2       -0.00005   0.00012  -0.00042   0.00003   0.00001
  18        5D-2        0.00000   0.00015  -0.00049  -0.00003  -0.00002
  19 2   C  1S          0.00001  -0.00001   0.56418   0.00008   0.00003
  20        2S         -0.00005   0.00002   0.46385   0.00009   0.00005
  21        2PX         0.00008  -0.00026   0.00069  -0.00005  -0.00003
  22        2PY        -0.00012  -0.00013  -0.00103   0.00000   0.00003
  23        2PZ         0.00000   0.00000   0.00000   0.00000   0.00000
  24        3S          0.00033   0.00052   0.01192  -0.00035  -0.00017
  25        3PX         0.00016   0.00062  -0.00133   0.00004   0.00009
  26        3PY         0.00014   0.00036   0.00023   0.00001  -0.00024
  27        3PZ         0.00000   0.00000   0.00000   0.00000   0.00000
  28        4S          0.00100   0.00117  -0.00238   0.00152   0.00188
  29        4PX         0.00173  -0.00453  -0.00222  -0.00053   0.00074
  30        4PY        -0.00076  -0.00116  -0.00428   0.00298   0.00112
  31        4PZ         0.00000   0.00000   0.00000   0.00000   0.00000
  32        5D 0       -0.00004   0.00017  -0.00115  -0.00003  -0.00004
  33        5D+1        0.00000   0.00000   0.00000   0.00000   0.00000
  34        5D-1        0.00000   0.00000   0.00000   0.00000   0.00000
  35        5D+2        0.00001  -0.00037   0.00017   0.00015   0.00015
  36        5D-2        0.00023  -0.00045   0.00090   0.00001  -0.00006
  37 3   O  1S          0.55286   0.00006  -0.00005  -0.00006   0.00000
  38        2S          0.46946   0.00007  -0.00012  -0.00015   0.00000
  39        2PX         0.00030  -0.00006  -0.00012   0.00016   0.00002
  40        2PY         0.00128   0.00002   0.00014   0.00011   0.00001
  41        2PZ         0.00000   0.00000   0.00000   0.00000   0.00000
  42        3S          0.00919  -0.00017   0.00080   0.00103   0.00013
  43        3PX        -0.00006   0.00023  -0.00032   0.00038  -0.00011
  44        3PY        -0.00019  -0.00010   0.00008  -0.00004  -0.00005
  45        3PZ         0.00000   0.00000   0.00000   0.00000   0.00000
  46        4S         -0.00711   0.00052  -0.00209  -0.00355  -0.00119
  47        4PX        -0.00037  -0.00024   0.00197  -0.00293  -0.00024
  48        4PY        -0.00091   0.00043  -0.00115  -0.00029  -0.00083
  49        4PZ         0.00000   0.00000   0.00000   0.00000   0.00000
  50        5D 0       -0.00001   0.00000   0.00020   0.00020   0.00007
  51        5D+1        0.00000   0.00000   0.00000   0.00000   0.00000
  52        5D-1        0.00000   0.00000   0.00000   0.00000   0.00000
  53        5D+2        0.00006  -0.00007  -0.00002  -0.00018  -0.00006
  54        5D-2       -0.00002   0.00005   0.00021  -0.00015  -0.00009
  55 4   C  1S          0.00001   0.00000  -0.00008   0.56411  -0.00371
  56        2S         -0.00007   0.00001  -0.00003   0.46374  -0.00294
  57        2PX        -0.00014  -0.00006  -0.00003  -0.00136   0.00010
  58        2PY        -0.00008   0.00000   0.00003  -0.00040   0.00075
  59        2PZ         0.00000   0.00000   0.00000   0.00000   0.00000
  60        3S          0.00061  -0.00011  -0.00039   0.01267  -0.00023
  61        3PX         0.00003   0.00031   0.00037   0.00189  -0.00016
  62        3PY         0.00008  -0.00003  -0.00019   0.00052  -0.00250
  63        3PZ         0.00000   0.00000   0.00000   0.00000   0.00000
  64        4S         -0.00166  -0.00066   0.00092  -0.01192   0.00280
  65        4PX        -0.00454  -0.00224  -0.00453  -0.00813  -0.00098
  66        4PY        -0.00145   0.00101   0.00746  -0.00600   0.00349
  67        4PZ         0.00000   0.00000  -0.00001   0.00000   0.00000
  68        5D 0       -0.00001  -0.00003  -0.00008  -0.00118   0.00044
  69        5D+1        0.00000   0.00000   0.00000   0.00000   0.00000
  70        5D-1        0.00000   0.00000   0.00000   0.00000   0.00000
  71        5D+2       -0.00005  -0.00005   0.00008  -0.00049   0.00110
  72        5D-2       -0.00021   0.00000  -0.00005  -0.00038  -0.00051
  73 5   C  1S          0.00000   0.00000   0.00000   0.00357  -0.00125
  74        2S          0.00002   0.00001   0.00002   0.00306  -0.00097
  75        2PX        -0.00001  -0.00001   0.00002  -0.00056  -0.00007
  76        2PY        -0.00003  -0.00001  -0.00001   0.00042   0.00008
  77        2PZ         0.00000   0.00000   0.00000   0.00000   0.00000
  78        3S         -0.00013  -0.00009  -0.00028  -0.00022  -0.00028
  79        3PX         0.00011   0.00005  -0.00005   0.00211   0.00052
  80        3PY         0.00010   0.00003   0.00004  -0.00151  -0.00062
  81        3PZ         0.00000   0.00000   0.00000   0.00000   0.00000
  82        4S          0.00282   0.00187   0.00726   0.00554   0.00050
  83        4PX         0.00082  -0.00063  -0.00234   0.00181  -0.00148
  84        4PY         0.00179   0.00087   0.00246   0.00391  -0.00035
  85        4PZ         0.00000   0.00000   0.00000   0.00000   0.00000
  86        5D 0       -0.00002  -0.00001  -0.00004   0.00044   0.00001
  87        5D+1        0.00000   0.00000   0.00000   0.00000   0.00000
  88        5D-1        0.00000   0.00000   0.00000   0.00000   0.00000
  89        5D+2       -0.00003   0.00000   0.00010  -0.00015  -0.00002
  90        5D-2        0.00010   0.00003   0.00006   0.00144   0.00041
  91 6   C  1S          0.00000   0.00000   0.00000  -0.00006  -0.00036
  92        2S          0.00001   0.00001   0.00000   0.00002  -0.00024
  93        2PX        -0.00003  -0.00001  -0.00002  -0.00013  -0.00001
  94        2PY        -0.00001  -0.00001   0.00000  -0.00006   0.00002
  95        2PZ         0.00000   0.00000   0.00000   0.00000   0.00000
  96        3S         -0.00006  -0.00004   0.00008  -0.00027  -0.00037
  97        3PX         0.00018   0.00007   0.00014   0.00098   0.00021
  98        3PY         0.00005   0.00004   0.00002   0.00029  -0.00022
  99        3PZ         0.00000   0.00000   0.00000   0.00000   0.00000
 100        4S         -0.00188  -0.00023  -0.00203  -0.00459   0.00179
 101        4PX         0.00056  -0.00011   0.00063   0.00160  -0.00100
 102        4PY        -0.00014  -0.00030  -0.00157  -0.00043   0.00039
 103        4PZ         0.00000   0.00000   0.00000   0.00000   0.00000
 104        5D 0       -0.00001  -0.00001   0.00002   0.00002  -0.00001
 105        5D+1        0.00000   0.00000   0.00000   0.00000   0.00000
 106        5D-1        0.00000   0.00000   0.00000   0.00000   0.00000
 107        5D+2       -0.00006  -0.00002  -0.00002  -0.00037   0.00004
 108        5D-2       -0.00001  -0.00001  -0.00005  -0.00029  -0.00011
 109 7   C  1S          0.00000   0.00000   0.00000  -0.00009   0.00128
 110        2S          0.00001   0.00001   0.00001  -0.00001   0.00112
 111        2PX         0.00000  -0.00001   0.00000  -0.00002  -0.00011
 112        2PY        -0.00001   0.00000   0.00001  -0.00003   0.00009
 113        2PZ         0.00000   0.00000   0.00000   0.00000   0.00000
 114        3S         -0.00009  -0.00004  -0.00013  -0.00042  -0.00021
 115        3PX         0.00002   0.00004   0.00003   0.00025   0.00078
 116        3PY         0.00006   0.00000  -0.00006   0.00021  -0.00054
 117        3PZ         0.00000   0.00000   0.00000   0.00000   0.00000
 118        4S          0.00153   0.00011   0.00152   0.00411  -0.00064
 119        4PX        -0.00070   0.00005  -0.00076  -0.00231   0.00047
 120        4PY        -0.00002  -0.00021  -0.00105  -0.00015   0.00041
 121        4PZ         0.00000   0.00000   0.00000   0.00000   0.00000
 122        5D 0       -0.00001   0.00000  -0.00002  -0.00001   0.00005
 123        5D+1        0.00000   0.00000   0.00000   0.00000   0.00000
 124        5D-1        0.00000   0.00000   0.00000   0.00000   0.00000
 125        5D+2        0.00003   0.00001  -0.00002   0.00009  -0.00010
 126        5D-2        0.00000   0.00001   0.00000   0.00003   0.00046
 127 8   C  1S          0.00000   0.00000   0.00000  -0.00001   0.02200
 128        2S          0.00001   0.00001   0.00001   0.00005   0.01818
 129        2PX        -0.00002  -0.00001  -0.00002  -0.00011  -0.00071
 130        2PY        -0.00002   0.00000   0.00000  -0.00007  -0.00022
 131        2PZ         0.00000   0.00000   0.00000   0.00000   0.00000
 132        3S         -0.00003  -0.00008  -0.00005  -0.00020   0.00045
 133        3PX         0.00013   0.00006   0.00011   0.00081   0.00245
 134        3PY         0.00012   0.00004   0.00002   0.00056   0.00077
 135        3PZ         0.00000   0.00000   0.00000   0.00000   0.00000
 136        4S         -0.00260   0.00015  -0.00302  -0.00452   0.00059
 137        4PX         0.00004   0.00009   0.00150  -0.00065  -0.00085
 138        4PY         0.00127  -0.00014  -0.00001   0.00352  -0.00026
 139        4PZ         0.00000   0.00000   0.00000   0.00000   0.00000
 140        5D 0       -0.00002  -0.00001   0.00001   0.00000   0.00034
 141        5D+1        0.00000   0.00000   0.00000   0.00000   0.00000
 142        5D-1        0.00000   0.00000   0.00000   0.00000   0.00000
 143        5D+2        0.00000  -0.00003  -0.00005  -0.00034  -0.00098
 144        5D-2       -0.00003  -0.00002   0.00002  -0.00028  -0.00090
 145 9   C  1S          0.00000   0.00000  -0.00003   0.00358   0.56358
 146        2S          0.00001   0.00001  -0.00001   0.00307   0.46336
 147        2PX        -0.00002  -0.00003  -0.00005  -0.00010  -0.00002
 148        2PY        -0.00002  -0.00001   0.00003  -0.00077  -0.00015
 149        2PZ         0.00000   0.00000   0.00000   0.00000   0.00000
 150        3S         -0.00001  -0.00005   0.00007  -0.00027   0.01260
 151        3PX         0.00004   0.00014   0.00030   0.00033   0.00031
 152        3PY         0.00012   0.00007  -0.00022   0.00280  -0.00042
 153        3PZ         0.00000   0.00000   0.00000   0.00000   0.00000
 154        4S          0.00109  -0.00065  -0.00445   0.00569  -0.01075
 155        4PX         0.00359   0.00054   0.00394   0.00542   0.00237
 156        4PY        -0.00218  -0.00023   0.00439  -0.00890   0.00080
 157        4PZ         0.00000   0.00000   0.00000   0.00000   0.00000
 158        5D 0       -0.00001   0.00001   0.00008   0.00041  -0.00113
 159        5D+1        0.00000   0.00000   0.00000   0.00000   0.00000
 160        5D-1        0.00000   0.00000   0.00000   0.00000   0.00000
 161        5D+2        0.00001   0.00003  -0.00005   0.00130   0.00007
 162        5D-2       -0.00011   0.00001   0.00010  -0.00039   0.00021
 163 10  C  1S          0.00000   0.00000  -0.00004  -0.00005   0.00672
 164        2S          0.00001   0.00002   0.00003   0.00000   0.00555
 165        2PX        -0.00001  -0.00004  -0.00013   0.00010   0.00052
 166        2PY         0.00002  -0.00002   0.00000  -0.00005  -0.00035
 167        2PZ         0.00000   0.00000   0.00000   0.00000   0.00000
 168        3S         -0.00013  -0.00010  -0.00041  -0.00020   0.00029
 169        3PX         0.00006   0.00021   0.00099  -0.00066  -0.00163
 170        3PY        -0.00004   0.00013   0.00021   0.00033   0.00091
 171        3PZ         0.00000   0.00000   0.00000   0.00000   0.00000
 172        4S          0.00466  -0.00172   0.00244   0.00476   0.00421
 173        4PX         0.00020   0.00098  -0.00186   0.00382   0.00120
 174        4PY        -0.00136   0.00003  -0.00158  -0.00153  -0.00234
 175        4PZ         0.00000   0.00000   0.00000   0.00000   0.00000
 176        5D 0       -0.00001   0.00000   0.00000  -0.00004   0.00026
 177        5D+1        0.00000   0.00000   0.00000   0.00000   0.00000
 178        5D-1        0.00000   0.00000   0.00000   0.00000   0.00000
 179        5D+2       -0.00003   0.00002  -0.00025   0.00001  -0.00010
 180        5D-2        0.00001  -0.00009  -0.00041   0.00047   0.00105
 181 11  C  1S          0.00000   0.00000   0.00112  -0.00002  -0.00005
 182        2S          0.00000   0.00002   0.00094   0.00001   0.00001
 183        2PX         0.00001  -0.00005  -0.00012   0.00005   0.00011
 184        2PY        -0.00004  -0.00001  -0.00057   0.00001   0.00005
 185        2PZ         0.00000   0.00000   0.00000   0.00000   0.00000
 186        3S          0.00012  -0.00011   0.00031  -0.00006  -0.00017
 187        3PX        -0.00006   0.00021   0.00053  -0.00045  -0.00093
 188        3PY         0.00023   0.00012   0.00175  -0.00011  -0.00031
 189        3PZ         0.00000   0.00000   0.00000   0.00000   0.00000
 190        4S         -0.00153   0.00204   0.00098  -0.00148  -0.00257
 191        4PX        -0.00206   0.00249  -0.00132   0.00100  -0.00082
 192        4PY         0.00018   0.00012  -0.00211   0.00260   0.00148
 193        4PZ         0.00000   0.00000   0.00000   0.00000   0.00000
 194        5D 0        0.00000  -0.00001   0.00028   0.00006   0.00005
 195        5D+1        0.00000   0.00000   0.00000   0.00000   0.00000
 196        5D-1        0.00000   0.00000   0.00000   0.00000   0.00000
 197        5D+2        0.00012   0.00014   0.00111  -0.00014  -0.00033
 198        5D-2        0.00004  -0.00017  -0.00014  -0.00010  -0.00028
 199 12  H  1S         -0.00006  -0.00002  -0.00004  -0.00019  -0.00005
 200        2S          0.00037   0.00007   0.00013   0.00001  -0.00040
 201        3S          0.00023   0.00012   0.00022   0.00090  -0.00002
 202        4PX         0.00003   0.00003   0.00003  -0.00001   0.00001
 203        4PY         0.00000   0.00000   0.00002  -0.00041  -0.00015
 204        4PZ         0.00000   0.00000   0.00000   0.00000   0.00000
 205 13  H  1S         -0.00001  -0.00001   0.00001  -0.00007  -0.00007
 206        2S          0.00002   0.00000  -0.00024  -0.00019   0.00006
 207        3S          0.00001   0.00002  -0.00021  -0.00001   0.00029
 208        4PX         0.00000   0.00001   0.00001   0.00010   0.00006
 209        4PY         0.00000   0.00000  -0.00001  -0.00008  -0.00004
 210        4PZ         0.00000   0.00000   0.00000   0.00000   0.00000
 211 14  H  1S         -0.00002  -0.00001  -0.00002  -0.00008  -0.00005
 212        2S          0.00003  -0.00001   0.00017   0.00018  -0.00034
 213        3S          0.00011   0.00002   0.00019   0.00046   0.00002
 214        4PX         0.00002   0.00000  -0.00001   0.00008   0.00016
 215        4PY         0.00000   0.00001   0.00002   0.00001   0.00003
 216        4PZ         0.00000   0.00000   0.00000   0.00000   0.00000
 217 15  H  1S          0.00000  -0.00001  -0.00002  -0.00003  -0.00008
 218        2S         -0.00016   0.00001   0.00010  -0.00076  -0.00087
 219        3S         -0.00018   0.00001   0.00006  -0.00055   0.00038
 220        4PX         0.00001   0.00001  -0.00001   0.00006   0.00018
 221        4PY         0.00002   0.00002   0.00001   0.00019   0.00047
 222        4PZ         0.00000   0.00000   0.00000   0.00000   0.00000
 223 16  H  1S         -0.00002  -0.00001  -0.00007  -0.00005  -0.00008
 224        2S         -0.00001   0.00009   0.00019  -0.00022  -0.00039
 225        3S          0.00015   0.00008   0.00048   0.00013   0.00055
 226        4PX         0.00000  -0.00002   0.00006  -0.00009  -0.00008
 227        4PY         0.00002   0.00000   0.00007   0.00012   0.00033
 228        4PZ         0.00000   0.00000   0.00000   0.00000   0.00000
 229 17  H  1S          0.00003  -0.00009  -0.00008  -0.00001  -0.00002
 230        2S         -0.00049   0.00047  -0.00055  -0.00011  -0.00043
 231        3S         -0.00030   0.00026   0.00021  -0.00003  -0.00013
 232        4PX        -0.00001  -0.00003  -0.00016  -0.00008  -0.00014
 233        4PY         0.00008  -0.00001   0.00027  -0.00004   0.00005
 234        4PZ         0.00000   0.00000   0.00000   0.00000   0.00000
                           6         7         8         9        10
                           O         O         O         O         O
     Eigenvalues --   -10.52269 -10.52224 -10.51757 -10.51515 -10.50164
   1 1   O  1S          0.00000   0.00000   0.00000   0.00000   0.00000
   2        2S          0.00001   0.00001   0.00001   0.00000   0.00002
   3        2PX         0.00000  -0.00001   0.00000   0.00000   0.00001
   4        2PY         0.00000   0.00000   0.00000  -0.00001   0.00003
   5        2PZ         0.00000   0.00000   0.00000   0.00000   0.00000
   6        3S         -0.00005  -0.00007  -0.00006  -0.00003  -0.00012
   7        3PX         0.00000   0.00001  -0.00002  -0.00001  -0.00009
   8        3PY        -0.00002  -0.00001   0.00000   0.00002  -0.00014
   9        3PZ         0.00000   0.00000   0.00000   0.00000   0.00000
  10        4S          0.00015   0.00032   0.00015   0.00013   0.00002
  11        4PX        -0.00005  -0.00005   0.00006   0.00006  -0.00005
  12        4PY         0.00003  -0.00003  -0.00004  -0.00004   0.00019
  13        4PZ         0.00000   0.00000   0.00000   0.00000   0.00000
  14        5D 0        0.00000   0.00001   0.00000  -0.00001   0.00002
  15        5D+1        0.00000   0.00000   0.00000   0.00000   0.00000
  16        5D-1        0.00000   0.00000   0.00000   0.00000   0.00000
  17        5D+2       -0.00001   0.00000   0.00000   0.00000  -0.00001
  18        5D-2       -0.00001  -0.00001  -0.00001   0.00000  -0.00005
  19 2   C  1S          0.00000   0.00000   0.00000   0.00000  -0.00003
  20        2S          0.00002   0.00002   0.00001   0.00000   0.00003
  21        2PX         0.00000  -0.00001   0.00000  -0.00001   0.00001
  22        2PY        -0.00001  -0.00002   0.00001   0.00001   0.00017
  23        2PZ         0.00000   0.00000   0.00000   0.00000   0.00000
  24        3S         -0.00015  -0.00024  -0.00009   0.00004  -0.00023
  25        3PX        -0.00003  -0.00001  -0.00002   0.00009  -0.00015
  26        3PY         0.00002   0.00005  -0.00006  -0.00008  -0.00088
  27        3PZ         0.00000   0.00000   0.00000   0.00000   0.00000
  28        4S          0.00110   0.00168   0.00026   0.00069  -0.00169
  29        4PX         0.00056   0.00092   0.00008   0.00019  -0.00014
  30        4PY         0.00028   0.00072   0.00035   0.00034  -0.00080
  31        4PZ         0.00000   0.00000   0.00000   0.00000   0.00000
  32        5D 0       -0.00004  -0.00005  -0.00002  -0.00002   0.00004
  33        5D+1        0.00000   0.00000   0.00000   0.00000   0.00000
  34        5D-1        0.00000   0.00000   0.00000   0.00000   0.00000
  35        5D+2        0.00002   0.00004   0.00003  -0.00001   0.00044
  36        5D-2        0.00002   0.00002   0.00001  -0.00003  -0.00015
  37 3   O  1S          0.00000   0.00000   0.00000   0.00000   0.00000
  38        2S          0.00001   0.00002   0.00001   0.00001   0.00001
  39        2PX         0.00002   0.00003   0.00002   0.00004  -0.00001
  40        2PY         0.00001   0.00001   0.00002   0.00000   0.00003
  41        2PZ         0.00000   0.00000   0.00000   0.00000   0.00000
  42        3S         -0.00006   0.00000  -0.00001  -0.00001   0.00000
  43        3PX        -0.00008  -0.00014  -0.00007  -0.00015   0.00003
  44        3PY        -0.00002  -0.00004  -0.00007   0.00002  -0.00014
  45        3PZ         0.00000   0.00000   0.00000   0.00000   0.00000
  46        4S          0.00021  -0.00022  -0.00047  -0.00044  -0.00048
  47        4PX         0.00012  -0.00028  -0.00003   0.00039   0.00006
  48        4PY        -0.00001  -0.00017   0.00006  -0.00032   0.00000
  49        4PZ         0.00000   0.00000   0.00000   0.00000   0.00000
  50        5D 0        0.00002   0.00006   0.00001   0.00002   0.00004
  51        5D+1        0.00000   0.00000   0.00000   0.00000   0.00000
  52        5D-1        0.00000   0.00000   0.00000   0.00000   0.00000
  53        5D+2       -0.00002  -0.00010  -0.00001  -0.00002  -0.00002
  54        5D-2       -0.00002  -0.00007  -0.00002   0.00000   0.00003
  55 4   C  1S         -0.00001  -0.00372   0.00012   0.00024   0.00009
  56        2S          0.00007  -0.00293   0.00014   0.00025   0.00011
  57        2PX         0.00006   0.00055   0.00004   0.00007  -0.00003
  58        2PY        -0.00001  -0.00052   0.00007  -0.00005   0.00009
  59        2PZ         0.00000   0.00000   0.00000   0.00000   0.00000
  60        3S         -0.00048  -0.00041  -0.00009  -0.00018  -0.00013
  61        3PX        -0.00040  -0.00172  -0.00023  -0.00059   0.00017
  62        3PY        -0.00005   0.00180  -0.00061   0.00045  -0.00062
  63        3PZ         0.00000   0.00000   0.00000   0.00000   0.00000
  64        4S          0.00207   0.00677  -0.00591  -0.00609  -0.00385
  65        4PX         0.00234   0.00357  -0.00293  -0.00343  -0.00103
  66        4PY        -0.00062   0.00049  -0.00102   0.00111  -0.00109
  67        4PZ         0.00000   0.00000   0.00000   0.00000   0.00000
  68        5D 0        0.00001   0.00045   0.00004   0.00004   0.00000
  69        5D+1        0.00000   0.00000   0.00000   0.00000   0.00000
  70        5D-1        0.00000   0.00000   0.00000   0.00000   0.00000
  71        5D+2        0.00009  -0.00029   0.00025  -0.00012   0.00027
  72        5D-2        0.00008   0.00115  -0.00014   0.00033  -0.00004
  73 5   C  1S          0.01562   0.56298   0.00154  -0.03119   0.00004
  74        2S          0.01290   0.46280   0.00131  -0.02551   0.00006
  75        2PX         0.00016  -0.00007   0.00000   0.00070  -0.00001
  76        2PY         0.00007  -0.00009   0.00001   0.00019   0.00000
  77        2PZ         0.00000   0.00000   0.00000   0.00000   0.00000
  78        3S          0.00022   0.01324  -0.00036  -0.00105  -0.00024
  79        3PX        -0.00098   0.00006  -0.00005  -0.00242   0.00010
  80        3PY        -0.00052   0.00031  -0.00015  -0.00060  -0.00008
  81        3PZ         0.00000   0.00000   0.00000   0.00000   0.00000
  82        4S         -0.00511  -0.00999   0.00494   0.00878   0.00189
  83        4PX        -0.00009  -0.00126   0.00069   0.00037   0.00036
  84        4PY        -0.00228  -0.00633   0.00274   0.00487   0.00138
  85        4PZ         0.00000   0.00001   0.00000   0.00000   0.00000
  86        5D 0        0.00003  -0.00134  -0.00003   0.00050  -0.00002
  87        5D+1        0.00000   0.00000   0.00000   0.00000   0.00000
  88        5D-1        0.00000   0.00000   0.00000   0.00000   0.00000
  89        5D+2       -0.00037  -0.00008  -0.00003  -0.00093   0.00003
  90        5D-2       -0.00033   0.00006   0.00002  -0.00088   0.00009
  91 6   C  1S          0.02851   0.03025  -0.00889   0.56252  -0.00002
  92        2S          0.02354   0.02498  -0.00727   0.46233   0.00000
  93        2PX         0.00016  -0.00065   0.00001   0.00008  -0.00002
  94        2PY         0.00065  -0.00030   0.00009  -0.00012   0.00000
  95        2PZ         0.00000   0.00000   0.00000   0.00000   0.00000
  96        3S          0.00044   0.00039  -0.00027   0.01313  -0.00009
  97        3PX        -0.00060   0.00221  -0.00004  -0.00041   0.00014
  98        3PY        -0.00215   0.00105  -0.00079   0.00011  -0.00003
  99        3PZ         0.00000   0.00000   0.00000   0.00000   0.00000
 100        4S          0.00594   0.00594  -0.00599  -0.01082  -0.00116
 101        4PX        -0.00277  -0.00317   0.00216   0.00531   0.00043
 102        4PY         0.00293   0.00217  -0.00186  -0.00490  -0.00010
 103        4PZ         0.00000   0.00000   0.00000   0.00000   0.00000
 104        5D 0        0.00033   0.00034   0.00003  -0.00142  -0.00001
 105        5D+1        0.00000   0.00000   0.00000   0.00000   0.00000
 106        5D-1        0.00000   0.00000   0.00000   0.00000   0.00000
 107        5D+2        0.00115  -0.00110   0.00033   0.00006  -0.00001
 108        5D-2       -0.00037  -0.00074  -0.00012   0.00009  -0.00006
 109 7   C  1S          0.56132  -0.01703  -0.04477  -0.02837   0.00000
 110        2S          0.46147  -0.01394  -0.03667  -0.02322   0.00002
 111        2PX         0.00013  -0.00004  -0.00051  -0.00008  -0.00002
 112        2PY         0.00001  -0.00018   0.00050  -0.00067   0.00002
 113        2PZ         0.00000   0.00000   0.00000   0.00000   0.00000
 114        3S          0.01307  -0.00052  -0.00141  -0.00089  -0.00014
 115        3PX        -0.00027   0.00029   0.00175   0.00015   0.00014
 116        3PY         0.00015   0.00108  -0.00177   0.00220  -0.00011
 117        3PZ         0.00000   0.00000   0.00000   0.00000   0.00000
 118        4S         -0.00915  -0.00382   0.00853   0.00833   0.00021
 119        4PX         0.00574   0.00161  -0.00512  -0.00482  -0.00040
 120        4PY         0.00219   0.00061  -0.00133  -0.00207  -0.00010
 121        4PZ        -0.00001   0.00000   0.00001   0.00001   0.00000
 122        5D 0       -0.00125   0.00010   0.00055   0.00047  -0.00001
 123        5D+1        0.00000   0.00000   0.00000   0.00000   0.00000
 124        5D-1        0.00000   0.00000   0.00000   0.00000   0.00000
 125        5D+2        0.00013   0.00046  -0.00031   0.00108  -0.00005
 126        5D-2       -0.00001  -0.00021   0.00130  -0.00050   0.00005
 127 8   C  1S          0.04488  -0.00237   0.56185   0.00674   0.00050
 128        2S          0.03702  -0.00189   0.46179   0.00558   0.00044
 129        2PX         0.00059  -0.00002  -0.00015   0.00006  -0.00004
 130        2PY        -0.00044  -0.00002   0.00018  -0.00008  -0.00001
 131        2PZ         0.00000   0.00000   0.00000   0.00000   0.00000
 132        3S          0.00068  -0.00045   0.01320   0.00012  -0.00012
 133        3PX        -0.00210   0.00009   0.00042  -0.00050   0.00036
 134        3PY         0.00158   0.00030  -0.00043   0.00069   0.00015
 135        3PZ         0.00000   0.00000   0.00000   0.00000   0.00000
 136        4S          0.00616   0.00191  -0.01308  -0.00788   0.00284
 137        4PX        -0.00088   0.00003   0.00143   0.00096  -0.00092
 138        4PY        -0.00307  -0.00138   0.00822   0.00383  -0.00040
 139        4PZ         0.00000   0.00000   0.00000   0.00000   0.00000
 140        5D 0        0.00032  -0.00002  -0.00141   0.00000  -0.00002
 141        5D+1        0.00000   0.00000   0.00000   0.00000   0.00000
 142        5D-1        0.00000   0.00000   0.00000   0.00000   0.00000
 143        5D+2       -0.00014  -0.00008  -0.00002  -0.00005  -0.00029
 144        5D-2        0.00132   0.00003  -0.00024   0.00036  -0.00012
 145 9   C  1S         -0.00301   0.00136  -0.02195   0.00008  -0.00683
 146        2S         -0.00240   0.00118  -0.01795   0.00012  -0.00558
 147        2PX         0.00019   0.00001   0.00068   0.00006  -0.00050
 148        2PY         0.00002  -0.00013   0.00024  -0.00004   0.00036
 149        2PZ         0.00000   0.00000   0.00000   0.00000   0.00000
 150        3S         -0.00027  -0.00013  -0.00066  -0.00034  -0.00010
 151        3PX        -0.00111  -0.00009  -0.00218  -0.00042   0.00145
 152        3PY        -0.00007   0.00091  -0.00069   0.00032  -0.00092
 153        3PZ         0.00000   0.00000   0.00000   0.00000   0.00000
 154        4S         -0.00470  -0.00499   0.00669   0.00250   0.00459
 155        4PX        -0.00111   0.00101   0.00712   0.00574  -0.00523
 156        4PY        -0.00176   0.00070  -0.00403  -0.00222  -0.00170
 157        4PZ         0.00000   0.00000   0.00000   0.00000   0.00000
 158        5D 0        0.00010   0.00005   0.00044   0.00000   0.00033
 159        5D+1        0.00000   0.00000   0.00000   0.00000   0.00000
 160        5D-1        0.00000   0.00000   0.00000   0.00000   0.00000
 161        5D+2       -0.00042   0.00042  -0.00084   0.00004  -0.00020
 162        5D-2       -0.00028  -0.00007  -0.00067  -0.00007   0.00081
 163 10  C  1S         -0.00008  -0.00003  -0.00076   0.00001   0.56337
 164        2S         -0.00005   0.00001  -0.00060   0.00002   0.46300
 165        2PX         0.00005   0.00004   0.00003   0.00001   0.00021
 166        2PY        -0.00001   0.00000  -0.00002   0.00000   0.00006
 167        2PZ         0.00000   0.00000   0.00000   0.00000   0.00000
 168        3S         -0.00018  -0.00027  -0.00013  -0.00013   0.01325
 169        3PX        -0.00031  -0.00026  -0.00028  -0.00010  -0.00136
 170        3PY         0.00011   0.00004   0.00020   0.00000  -0.00013
 171        3PZ         0.00000   0.00000   0.00000   0.00000   0.00000
 172        4S          0.00135   0.00269   0.00437   0.00418  -0.00898
 173        4PX         0.00187   0.00040   0.00092   0.00076   0.00114
 174        4PY        -0.00017  -0.00176  -0.00134  -0.00178   0.00625
 175        4PZ         0.00000   0.00000   0.00000   0.00000   0.00001
 176        5D 0       -0.00004  -0.00004  -0.00003  -0.00002  -0.00141
 177        5D+1        0.00000   0.00000   0.00000   0.00000   0.00000
 178        5D-1        0.00000   0.00000   0.00000   0.00000   0.00000
 179        5D+2       -0.00006   0.00003  -0.00015   0.00000   0.00016
 180        5D-2        0.00015   0.00014   0.00027   0.00010   0.00057
 181 11  C  1S         -0.00001  -0.00001  -0.00001  -0.00001   0.02834
 182        2S          0.00000   0.00001   0.00001   0.00000   0.02353
 183        2PX         0.00001   0.00003   0.00002   0.00002   0.00071
 184        2PY        -0.00001  -0.00001   0.00001   0.00001   0.00031
 185        2PZ         0.00000   0.00000   0.00000   0.00000   0.00000
 186        3S         -0.00004  -0.00004  -0.00012   0.00001  -0.00007
 187        3PX        -0.00013  -0.00023  -0.00018  -0.00014  -0.00303
 188        3PY         0.00002   0.00001  -0.00006  -0.00007  -0.00117
 189        3PZ         0.00000   0.00000   0.00000   0.00000   0.00000
 190        4S          0.00039  -0.00199  -0.00082  -0.00135   0.00475
 191        4PX         0.00008  -0.00069   0.00001  -0.00052   0.00248
 192        4PY         0.00083   0.00090   0.00019   0.00061  -0.00154
 193        4PZ         0.00000   0.00000   0.00000   0.00000   0.00000
 194        5D 0        0.00001   0.00001  -0.00001   0.00000   0.00054
 195        5D+1        0.00000   0.00000   0.00000   0.00000   0.00000
 196        5D-1        0.00000   0.00000   0.00000   0.00000   0.00000
 197        5D+2       -0.00004  -0.00004  -0.00008  -0.00004  -0.00109
 198        5D-2       -0.00003  -0.00007  -0.00001  -0.00003  -0.00114
 199 12  H  1S         -0.00002   0.00049  -0.00007  -0.00019  -0.00004
 200        2S         -0.00055  -0.00398   0.00033   0.00023   0.00024
 201        3S         -0.00014  -0.00009   0.00049   0.00100   0.00029
 202        4PX        -0.00008  -0.00035  -0.00001  -0.00011   0.00002
 203        4PY        -0.00021  -0.00175  -0.00004  -0.00023  -0.00001
 204        4PZ         0.00000   0.00000   0.00000   0.00000   0.00000
 205 13  H  1S         -0.00015  -0.00014  -0.00003   0.00051  -0.00002
 206        2S         -0.00006  -0.00013  -0.00037  -0.00396  -0.00002
 207        3S          0.00102   0.00099  -0.00035  -0.00033  -0.00001
 208        4PX         0.00027   0.00037   0.00006   0.00131   0.00001
 209        4PY        -0.00032  -0.00022  -0.00006  -0.00111  -0.00002
 210        4PZ         0.00000   0.00000   0.00000   0.00000   0.00000
 211 14  H  1S          0.00048  -0.00006  -0.00021  -0.00019  -0.00002
 212        2S         -0.00390  -0.00028   0.00040   0.00038   0.00012
 213        3S         -0.00010  -0.00015   0.00110   0.00111   0.00016
 214        4PX         0.00168   0.00010   0.00022   0.00019   0.00000
 215        4PY         0.00059   0.00005   0.00000   0.00013   0.00000
 216        4PZ         0.00000   0.00000   0.00000   0.00000   0.00000
 217 15  H  1S         -0.00013  -0.00007   0.00054   0.00000  -0.00004
 218        2S         -0.00047   0.00014  -0.00417  -0.00068  -0.00025
 219        3S          0.00083   0.00026  -0.00049  -0.00054  -0.00001
 220        4PX         0.00002   0.00000   0.00031   0.00001   0.00007
 221        4PY         0.00053   0.00007   0.00170   0.00017   0.00012
 222        4PZ         0.00000   0.00000   0.00000   0.00000   0.00000
 223 16  H  1S         -0.00002  -0.00005  -0.00004  -0.00003   0.00050
 224        2S         -0.00027   0.00022  -0.00019   0.00012  -0.00404
 225        3S         -0.00011   0.00033   0.00010   0.00027  -0.00012
 226        4PX        -0.00006  -0.00004  -0.00003  -0.00003   0.00023
 227        4PY         0.00008   0.00001   0.00013   0.00001   0.00176
 228        4PZ         0.00000   0.00000   0.00000   0.00000   0.00000
 229 17  H  1S          0.00001   0.00000  -0.00001   0.00000  -0.00016
 230        2S         -0.00021  -0.00019   0.00007  -0.00011  -0.00055
 231        3S         -0.00002  -0.00010   0.00009  -0.00010   0.00095
 232        4PX        -0.00004  -0.00004   0.00000  -0.00001  -0.00051
 233        4PY        -0.00001   0.00001  -0.00001   0.00001   0.00026
 234        4PZ         0.00000   0.00000   0.00000   0.00000   0.00000
                          11        12        13        14        15
                           O         O         O         O         O
     Eigenvalues --   -10.49220  -1.21412  -1.11871  -0.94766  -0.88207
   1 1   O  1S          0.00000  -0.04026  -0.09628  -0.00865   0.01210
   2        2S          0.00002  -0.06605  -0.15824  -0.01425   0.02015
   3        2PX         0.00002   0.03034   0.05459   0.00009  -0.00292
   4        2PY         0.00000   0.01044   0.02995   0.00475   0.00478
   5        2PZ         0.00000   0.00001   0.00000   0.00000   0.00001
   6        3S         -0.00011   0.18628   0.44635   0.04024  -0.05905
   7        3PX        -0.00014   0.04665   0.08211  -0.00063  -0.00641
   8        3PY        -0.00007   0.01569   0.04533   0.00671   0.00632
   9        3PZ         0.00000   0.00001   0.00000  -0.00001   0.00001
  10        4S          0.00007   0.12714   0.33242   0.03268  -0.04764
  11        4PX        -0.00020   0.01854   0.02885  -0.00137   0.00108
  12        4PY        -0.00029   0.00363   0.01826   0.00487   0.00424
  13        4PZ         0.00000   0.00001   0.00000   0.00000   0.00000
  14        5D 0        0.00002  -0.00337  -0.00691  -0.00025   0.00055
  15        5D+1        0.00000   0.00000   0.00000   0.00000   0.00000
  16        5D-1        0.00000   0.00000   0.00000   0.00000   0.00000
  17        5D+2       -0.00002   0.00605   0.00783  -0.00064  -0.00190
  18        5D-2       -0.00011   0.00463   0.01237   0.00121  -0.00021
  19 2   C  1S         -0.00120  -0.05318  -0.04360   0.00442  -0.01899
  20        2S         -0.00098  -0.08387  -0.06793   0.00729  -0.03079
  21        2PX         0.00004   0.00800  -0.09473  -0.02056   0.02132
  22        2PY         0.00052  -0.03585  -0.02741   0.01310   0.03774
  23        2PZ         0.00000   0.00005  -0.00002  -0.00002   0.00003
  24        3S          0.00026   0.21585   0.17854  -0.01931   0.08414
  25        3PX        -0.00002   0.02331  -0.12103  -0.03122   0.02878
  26        3PY        -0.00116  -0.05477  -0.03337   0.02194   0.05398
  27        3PZ         0.00000   0.00007  -0.00003  -0.00003   0.00004
  28        4S          0.00369   0.03975   0.04131  -0.01260   0.02489
  29        4PX         0.00191   0.00214   0.02221  -0.00073   0.00342
  30        4PY         0.00115   0.00984   0.00339  -0.00875   0.01579
  31        4PZ         0.00000   0.00000   0.00001   0.00000   0.00001
  32        5D 0        0.00030  -0.01476  -0.00854   0.00148  -0.00277
  33        5D+1        0.00000   0.00003  -0.00001  -0.00001   0.00001
  34        5D-1        0.00000  -0.00002   0.00001   0.00001   0.00001
  35        5D+2        0.00068   0.01150   0.00527  -0.00060  -0.00191
  36        5D-2       -0.00007  -0.00879   0.02153   0.00874   0.00311
  37 3   O  1S          0.00000  -0.09631   0.04838   0.02214   0.01311
  38        2S          0.00000  -0.15830   0.07967   0.03680   0.02186
  39        2PX         0.00001  -0.00087  -0.02634   0.02395  -0.01783
  40        2PY         0.00001   0.03466  -0.01575  -0.00275   0.02029
  41        2PZ         0.00000  -0.00002  -0.00001   0.00002  -0.00001
  42        3S          0.00019   0.45081  -0.22702  -0.10904  -0.06674
  43        3PX        -0.00003  -0.00160  -0.04018   0.03353  -0.02591
  44        3PY        -0.00004   0.05776  -0.02658  -0.00624   0.02911
  45        3PZ         0.00000  -0.00004  -0.00001   0.00003  -0.00001
  46        4S         -0.00148   0.35630  -0.19644  -0.08827  -0.04683
  47        4PX         0.00063   0.00943  -0.01893   0.02419  -0.01624
  48        4PY        -0.00088   0.02965  -0.01769  -0.00071   0.02326
  49        4PZ         0.00000  -0.00001   0.00000   0.00003  -0.00001
  50        5D 0        0.00004  -0.00823   0.00377   0.00068  -0.00064
  51        5D+1        0.00000   0.00002  -0.00001  -0.00001   0.00000
  52        5D-1        0.00000  -0.00001   0.00000   0.00000   0.00000
  53        5D+2        0.00000   0.00535  -0.00102  -0.00038  -0.00432
  54        5D-2        0.00007  -0.00158  -0.00180   0.00291  -0.00102
  55 4   C  1S          0.00001  -0.03292   0.02607  -0.04411   0.00886
  56        2S          0.00004  -0.05214   0.04148  -0.07080   0.01432
  57        2PX         0.00002  -0.03672   0.02439   0.03666  -0.01213
  58        2PY         0.00007  -0.01150   0.00881   0.01802   0.04371
  59        2PZ         0.00000  -0.00002   0.00002  -0.00001  -0.00001
  60        3S         -0.00015   0.12845  -0.10410   0.18610  -0.03756
  61        3PX        -0.00004  -0.06103   0.03950   0.05009  -0.01415
  62        3PY        -0.00050  -0.01854   0.01451   0.02574   0.06535
  63        3PZ         0.00000  -0.00003   0.00002  -0.00002   0.00000
  64        4S         -0.00074   0.04844  -0.03839   0.09148  -0.03602
  65        4PX        -0.00123   0.05235  -0.00565   0.02706   0.00051
  66        4PY         0.00282   0.02298  -0.02364   0.02024   0.00454
  67        4PZ         0.00000   0.00001   0.00001  -0.00002  -0.00001
  68        5D 0       -0.00001  -0.01022   0.00757  -0.00818   0.00166
  69        5D+1        0.00000   0.00001  -0.00001  -0.00001   0.00000
  70        5D-1        0.00000   0.00000   0.00000  -0.00001  -0.00001
  71        5D+2        0.00018   0.01304  -0.00765  -0.00411  -0.00610
  72        5D-2       -0.00005   0.00864  -0.00675  -0.00200  -0.00369
  73 5   C  1S          0.00000  -0.00579   0.00642  -0.04512   0.03877
  74        2S          0.00001  -0.00917   0.01018  -0.07194   0.06218
  75        2PX         0.00000  -0.00627   0.00578   0.00555  -0.00756
  76        2PY         0.00000   0.00301  -0.00326   0.02693  -0.01077
  77        2PZ         0.00000   0.00000   0.00000  -0.00003   0.00002
  78        3S         -0.00013   0.02406  -0.02585   0.18319  -0.16025
  79        3PX         0.00003  -0.01020   0.00937   0.00777  -0.00918
  80        3PY        -0.00006   0.00431  -0.00565   0.03775  -0.01680
  81        3PZ         0.00000   0.00000   0.00001  -0.00003   0.00002
  82        4S          0.00270  -0.02404  -0.01122   0.07378  -0.08342
  83        4PX        -0.00119  -0.01887   0.01589  -0.00452  -0.00497
  84        4PY         0.00063  -0.01681   0.00032  -0.00067  -0.00359
  85        4PZ         0.00000   0.00001  -0.00001   0.00001   0.00001
  86        5D 0       -0.00002  -0.00092   0.00122  -0.00809   0.00595
  87        5D+1        0.00000   0.00000   0.00000  -0.00001   0.00001
  88        5D-1        0.00000   0.00000   0.00000  -0.00001   0.00001
  89        5D+2        0.00003   0.00282  -0.00174  -0.00150  -0.00298
  90        5D-2        0.00006  -0.00253   0.00210  -0.00003  -0.00035
  91 6   C  1S          0.00001  -0.00094   0.00157  -0.04500   0.03866
  92        2S          0.00001  -0.00153   0.00251  -0.07198   0.06203
  93        2PX         0.00000  -0.00079   0.00141  -0.02024   0.01438
  94        2PY         0.00000   0.00013  -0.00024   0.01603  -0.00455
  95        2PZ         0.00000   0.00000   0.00000   0.00000  -0.00001
  96        3S          0.00000   0.00451  -0.00660   0.18303  -0.15894
  97        3PX         0.00004  -0.00286   0.00269  -0.03003   0.02225
  98        3PY        -0.00001   0.00021  -0.00047   0.02371  -0.00668
  99        3PZ         0.00000   0.00000   0.00000   0.00000  -0.00001
 100        4S          0.00002   0.02338  -0.01090   0.09631  -0.07498
 101        4PX         0.00031  -0.00695   0.00352  -0.00961   0.00352
 102        4PY        -0.00037  -0.00601   0.00587   0.00736  -0.00160
 103        4PZ         0.00000   0.00002  -0.00001   0.00000  -0.00001
 104        5D 0        0.00000  -0.00018   0.00041  -0.00895   0.00648
 105        5D+1        0.00000   0.00000   0.00000  -0.00001   0.00001
 106        5D-1        0.00000   0.00000   0.00000  -0.00001   0.00001
 107        5D+2        0.00000   0.00075  -0.00060   0.00007  -0.00135
 108        5D-2       -0.00003  -0.00047   0.00032   0.00051  -0.00169
 109 7   C  1S          0.00001  -0.00052   0.00099  -0.04592   0.02263
 110        2S          0.00001  -0.00091   0.00160  -0.07312   0.03623
 111        2PX        -0.00001  -0.00047   0.00087  -0.02546   0.00359
 112        2PY         0.00001  -0.00009   0.00023  -0.00674   0.01698
[...]
                                                    218(g),148(v)
     8. BD (   1) C   4 - C   9          0.98509    -0.75612  217(g),227(g),230(g),229(v)
                                                    233(v),221(v),91(v),156(v)
                                                    130(v),92(v),216(g),131(v)
                                                    68(v)
     9. BD (   1) C   5 - C   6          0.98753    -0.75592  216(v),217(g),222(g),226(v)
                                                    221(g),224(g),118(v),78(v)
                                                    79(v),117(v)
    10. BD (   1) C   5 - H  12          0.98864    -0.57071  219(v),222(v),216(v),104(v)
                                                    220(g),78(v),217(g),224(v)
                                                    81(v)
    11. BD (   1) C   6 - C   7          0.98899    -0.74488  225(g),220(g),229(v),221(v)
                                                    92(v),131(v),224(g),226(g)
                                                    130(v)
    12. BD (   2) C   6 - C   7          0.82218    -0.26731  228(v),218(v),93(v),133(v)
                                                    132(v)
    13. BD (   1) C   6 - H  13          0.98947    -0.55889  217(v),225(v),117(v),91(v)
                                                    220(g),222(g),226(v),221(v)
    14. BD (   1) C   7 - C   8          0.98908    -0.75601  227(g),230(v),222(g),224(v)
                                                    229(g),226(g),144(v),105(v)
                                                    104(v),143(v)
    15. BD (   1) C   7 - H  14          0.98948    -0.56731  227(v),220(v),130(v),104(v)
                                                    225(g),222(g),224(v),229(v)
    16. BD (   1) C   8 - C   9          0.98417    -0.74037  219(g),230(g),216(v),225(g)
                                                    226(v),156(v),231(v),118(v)
                                                    229(g),117(v),79(v)
    17. BD (   2) C   8 - C   9          0.80779    -0.26222  218(v),223(v),232(v),158(v)
                                                    119(v),82(v),145(g)
    18. BD (   1) C   8 - H  15          0.98960    -0.56078  219(v),222(v),143(v),117(v)
                                                    227(g),225(g),226(v)
    19. BD (   1) C   9 - C  10          0.98367    -0.69643  227(g),231(g),219(g),234(v)
                                                    217(v),225(v),170(v),130(v)
                                                    78(v),233(g),169(v)
    20. BD (   1) C  10 - C  11          0.98949    -0.77577  230(g),227(v),234(g),144(v)
                                                    215(g),212(v),233(g),55(v)
                                                    53(v),207(v)
    21. BD (   2) C  10 - C  11          0.91294    -0.27399  213(v),228(v),145(v),57(v)
    22. BD (   1) C  10 - H  16          0.98913    -0.54762  215(v),219(v),231(g),169(v)
                                                    144(v),234(v),230(g),143(v)
    23. BD (   1) C  11 - H  17          0.98768    -0.54943  230(v),214(v),231(g),156(v)
                                                    52(v),233(v),56(v)
    24. CR (   1) O   1                  0.99988   -19.28948  52(v),215(v),214(v)
    25. CR (   1) C   2                  0.99962   -10.50767  216(v),170(v),231(v),214(g)
    26. CR (   1) O   3                  0.99983   -19.43571  78(v),53(v),219(v)
    27. CR (   1) C   4                  0.99934   -10.44665  144(v),92(v),214(v),216(g)
                                                    219(g),230(v),217(g),227(v)
                                                    220(v)
    28. CR (   1) C   5                  0.99954   -10.37353  79(v),105(v),219(v),222(v)
                                                    216(v),81(v),183(v)
    29. CR (   1) C   6                  0.99959   -10.36822  118(v),217(v),225(v),92(v)
                                                    188(v),91(v),94(v),221(v)
    30. CR (   1) C   7                  0.99959   -10.37522  105(v),131(v),227(v),220(v)
                                                    134(v),193(v),229(v)
    31. CR (   1) C   8                  0.99955   -10.36707  118(v),230(v),219(v),222(v)
                                                    144(v),143(v),146(v),198(v)
    32. CR (   1) C   9                  0.99949   -10.37607  131(v),79(v),217(v),157(v)
                                                    78(v),225(v),216(v),231(v)
    33. CR (   1) C  10                  0.99955   -10.34968  143(v),227(v),215(v),170(v)
                                                    219(v),231(g),169(v),234(v)
                                                    146(v),171(v),203(v)
    34. CR (   1) C  11                  0.99952   -10.34853  157(v),230(v),231(g),56(v)
                                                    52(v),212(v),159(v),233(v)
                                                    53(v),208(v)
    35. LP (   1) O   1                  0.98905    -0.73887  52(v),215(v),214(v),53(v)
                                                    63(v)
    36. LP (   2) O   1                  0.92813    -0.30029  214(v),215(v),53(v),55(v)
                                                    216(r)
    37. LP (   1) O   3                  0.98052    -0.58997  219(v),215(v),212(v),78(v)
                                                    53(v),217(v),55(v)
    38. LP (   2) O   3                  0.87835    -0.36739  213(v),218(v),80(v),54(v)
                                                    57(v)
    39. RY*(   1) O   1                  0.00090     1.18572   
    40. RY*(   2) O   1                  0.00056     1.02807   
    41. RY*(   3) O   1                  0.00012     2.16633   
    42. RY*(   4) O   1                  0.00003     1.35050   
    43. RY*(   5) O   1                  0.00004     4.44238   
    44. RY*(   6) O   1                  0.00000     5.01088   
    45. RY*(   7) O   1                  0.00000     4.62056   
    46. RY*(   8) O   1                  0.00000     4.99502   
    47. RY*(   9) O   1                  0.00000     3.35670   
    48. RY*(  10) O   1                  0.00000     3.17108   
    49. RY*(  11) O   1                  0.00001     3.02095   
    50. RY*(  12) O   1                  0.00000    49.60691   
    51. RY*(  13) O   1                  0.00000     3.05905   
    52. RY*(   1) C   2                  0.00873     0.84636   
    53. RY*(   2) C   2                  0.00524     1.61315   
    54. RY*(   3) C   2                  0.00299     1.65416   
    55. RY*(   4) C   2                  0.00153     2.33780   
    56. RY*(   5) C   2                  0.00093     2.16916   
    57. RY*(   6) C   2                  0.00051     1.64837   
    58. RY*(   7) C   2                  0.00025     2.56876   
    59. RY*(   8) C   2                  0.00019     0.69401   
    60. RY*(   9) C   2                  0.00004     6.56347   
    61. RY*(  10) C   2                  0.00000    16.22383   
    62. RY*(  11) C   2                  0.00000     2.54940   
    63. RY*(  12) C   2                  0.00001     3.28183   
    64. RY*(  13) C   2                  0.00000     2.65591   
    65. RY*(   1) O   3                  0.00148     1.24607   
    66. RY*(   2) O   3                  0.00085     1.06677   
    67. RY*(   3) O   3                  0.00072     2.38921   
    68. RY*(   4) O   3                  0.00025     1.99065   
    69. RY*(   5) O   3                  0.00008     3.03240   
    70. RY*(   6) O   3                  0.00004     3.86362   
    71. RY*(   7) O   3                  0.00002     4.65045   
    72. RY*(   8) O   3                  0.00001     3.54430   
    73. RY*(   9) O   3                  0.00000     5.08702   
    74. RY*(  10) O   3                  0.00000    49.56973   
    75. RY*(  11) O   3                  0.00001     2.97294   
    76. RY*(  12) O   3                  0.00000     4.97629   
    77. RY*(  13) O   3                  0.00001     3.30376   
    78. RY*(   1) C   4                  0.00302     1.38880   
    79. RY*(   2) C   4                  0.00191     1.86546   
    80. RY*(   3) C   4                  0.00119     1.64427   
    81. RY*(   4) C   4                  0.00093     1.56850   
    82. RY*(   5) C   4                  0.00039     1.50953   
    83. RY*(   6) C   4                  0.00030     0.84404   
    84. RY*(   7) C   4                  0.00029     2.66918   
    85. RY*(   8) C   4                  0.00011     2.64994   
    86. RY*(   9) C   4                  0.00008     2.98343   
    87. RY*(  10) C   4                  0.00002     4.66871   
    88. RY*(  11) C   4                  0.00001    19.72469   
    89. RY*(  12) C   4                  0.00001     2.23717   
    90. RY*(  13) C   4                  0.00000     2.73436   
    91. RY*(   1) C   5                  0.00273     1.47010   
    92. RY*(   2) C   5                  0.00106     1.48409   
    93. RY*(   3) C   5                  0.00054     0.61026   
    94. RY*(   4) C   5                  0.00023     1.07926   
    95. RY*(   5) C   5                  0.00024     1.71168   
    96. RY*(   6) C   5                  0.00007     3.46352   
    97. RY*(   7) C   5                  0.00004     2.26452   
    98. RY*(   8) C   5                  0.00003     1.66892   
    99. RY*(   9) C   5                  0.00001     3.19405   
   100. RY*(  10) C   5                  0.00001     2.45965   
   101. RY*(  11) C   5                  0.00001     4.24045   
   102. RY*(  12) C   5                  0.00000     2.76561   
   103. RY*(  13) C   5                  0.00000    20.30774   
   104. RY*(   1) C   6                  0.00281     1.32715   
   105. RY*(   2) C   6                  0.00087     1.61153   
   106. RY*(   3) C   6                  0.00048     0.91785   
   107. RY*(   4) C   6                  0.00029     1.47593   
   108. RY*(   5) C   6                  0.00013     0.97037   
   109. RY*(   6) C   6                  0.00004     4.36916   
   110. RY*(   7) C   6                  0.00005     4.01749   
   111. RY*(   8) C   6                  0.00001     2.70768   
   112. RY*(   9) C   6                  0.00001     3.35544   
   113. RY*(  10) C   6                  0.00000     2.77182   
   114. RY*(  11) C   6                  0.00000     1.61578   
   115. RY*(  12) C   6                  0.00000    19.03651   
   116. RY*(  13) C   6                  0.00001     2.70517   
   117. RY*(   1) C   7                  0.00279     1.29909   
   118. RY*(   2) C   7                  0.00093     1.53240   
   119. RY*(   3) C   7                  0.00050     0.64698   
   120. RY*(   4) C   7                  0.00025     1.72749   
   121. RY*(   5) C   7                  0.00012     0.95546   
   122. RY*(   6) C   7                  0.00004     3.42391   
   123. RY*(   7) C   7                  0.00004     5.31315   
   124. RY*(   8) C   7                  0.00001     2.51979   
   125. RY*(   9) C   7                  0.00000    19.26969   
   126. RY*(  10) C   7                  0.00000     1.61504   
   127. RY*(  11) C   7                  0.00000     2.75458   
   128. RY*(  12) C   7                  0.00001     3.36064   
   129. RY*(  13) C   7                  0.00001     2.33213   
   130. RY*(   1) C   8                  0.00284     1.40214   
   131. RY*(   2) C   8                  0.00090     1.47507   
   132. RY*(   3) C   8                  0.00050     0.75735   
   133. RY*(   4) C   8                  0.00031     1.59222   
   134. RY*(   5) C   8                  0.00024     1.12997   
   135. RY*(   6) C   8                  0.00005     3.99881   
   136. RY*(   7) C   8                  0.00003     2.53833   
   137. RY*(   8) C   8                  0.00003     4.80504   
   138. RY*(   9) C   8                  0.00002     1.65841   
   139. RY*(  10) C   8                  0.00000    16.83573   
   140. RY*(  11) C   8                  0.00001     3.39706   
   141. RY*(  12) C   8                  0.00000     2.77836   
   142. RY*(  13) C   8                  0.00000     4.40011   
   143. RY*(   1) C   9                  0.00245     1.77473   
   144. RY*(   2) C   9                  0.00215     1.86740   
   145. RY*(   3) C   9                  0.00042     1.01552   
   146. RY*(   4) C   9                  0.00034     1.13866   
   147. RY*(   5) C   9                  0.00030     1.43105   
   148. RY*(   6) C   9                  0.00017     1.68199   
   149. RY*(   7) C   9                  0.00007     3.33649   
   150. RY*(   8) C   9                  0.00007     3.54116   
   151. RY*(   9) C   9                  0.00005     3.40480   
   152. RY*(  10) C   9                  0.00002     2.69357   
   153. RY*(  11) C   9                  0.00001    21.52070   
   154. RY*(  12) C   9                  0.00001     2.24730   
   155. RY*(  13) C   9                  0.00000     2.80100   
   156. RY*(   1) C  10                  0.00280     1.40514   
   157. RY*(   2) C  10                  0.00103     1.44182   
   158. RY*(   3) C  10                  0.00080     0.82926   
   159. RY*(   4) C  10                  0.00025     1.13945   
   160. RY*(   5) C  10                  0.00006     4.97350   
   161. RY*(   6) C  10                  0.00004     1.51778   
   162. RY*(   7) C  10                  0.00003     3.01617   
   163. RY*(   8) C  10                  0.00002     5.37886   
   164. RY*(   9) C  10                  0.00001     1.69812   
   165. RY*(  10) C  10                  0.00002     3.34900   
   166. RY*(  11) C  10                  0.00001     2.23123   
   167. RY*(  12) C  10                  0.00000     2.80975   
   168. RY*(  13) C  10                  0.00000    17.21008   
   169. RY*(   1) C  11                  0.00191     1.69099   
   170. RY*(   2) C  11                  0.00120     1.43074   
   171. RY*(   3) C  11                  0.00059     0.98869   
   172. RY*(   4) C  11                  0.00046     0.62422   
   173. RY*(   5) C  11                  0.00008     3.57551   
   174. RY*(   6) C  11                  0.00006     1.76346   
   175. RY*(   7) C  11                  0.00003     3.55374   
   176. RY*(   8) C  11                  0.00003     2.48863   
   177. RY*(   9) C  11                  0.00001     2.75712   
   178. RY*(  10) C  11                  0.00000    21.63668   
   179. RY*(  11) C  11                  0.00001     1.70381   
   180. RY*(  12) C  11                  0.00000     2.76986   
   181. RY*(  13) C  11                  0.00001     2.24325   
   182. RY*(   1) H  12                  0.00113     0.44078   
   183. RY*(   2) H  12                  0.00012     2.33982   
   184. RY*(   3) H  12                  0.00004     2.05742   
   185. RY*(   4) H  12                  0.00005     1.65938   
   186. RY*(   5) H  12                  0.00001     2.70544   
   187. RY*(   1) H  13                  0.00053     0.55740   
   188. RY*(   2) H  13                  0.00008     2.05304   
   189. RY*(   3) H  13                  0.00004     2.05958   
   190. RY*(   4) H  13                  0.00004     1.65723   
   191. RY*(   5) H  13                  0.00002     2.65950   
   192. RY*(   1) H  14                  0.00049     0.57082   
   193. RY*(   2) H  14                  0.00008     2.05073   
   194. RY*(   3) H  14                  0.00006     1.65391   
   195. RY*(   4) H  14                  0.00004     2.06588   
   196. RY*(   5) H  14                  0.00001     2.64128   
   197. RY*(   1) H  15                  0.00096     0.47577   
   198. RY*(   2) H  15                  0.00012     2.36956   
   199. RY*(   3) H  15                  0.00005     2.11354   
   200. RY*(   4) H  15                  0.00004     1.66377   
   201. RY*(   5) H  15                  0.00001     2.64352   
   202. RY*(   1) H  16                  0.00099     0.48670   
   203. RY*(   2) H  16                  0.00011     2.36652   
   204. RY*(   3) H  16                  0.00004     2.09078   
   205. RY*(   4) H  16                  0.00003     1.67000   
   206. RY*(   5) H  16                  0.00002     2.67441   
   207. RY*(   1) H  17                  0.00109     0.43938   
   208. RY*(   2) H  17                  0.00011     2.36475   
   209. RY*(   3) H  17                  0.00004     1.67340   
   210. RY*(   4) H  17                  0.00003     2.26924   
   211. RY*(   5) H  17                  0.00003     2.47428   
   212. BD*(   1) O   1 - C   2          0.00752     0.75034   
   213. BD*(   2) O   1 - C   2          0.13322     0.09908  232(v),54(g),40(g),59(g)
   214. BD*(   1) C   2 - O   3          0.05306     0.44876   
   215. BD*(   1) C   2 - C  11          0.02694     0.56716   
   216. BD*(   1) O   3 - C   4          0.01698     0.45421   
   217. BD*(   1) C   4 - C   5          0.01208     0.65253   
   218. BD*(   2) C   4 - C   5          0.19369     0.07594  223(v),228(v),93(g),83(g)
   219. BD*(   1) C   4 - C   9          0.01927     0.64889   
   220. BD*(   1) C   5 - C   6          0.00773     0.67291   
   221. BD*(   1) C   5 - H  12          0.00676     0.53290   
   222. BD*(   1) C   6 - C   7          0.00883     0.65662   
   223. BD*(   2) C   6 - C   7          0.18578     0.08179  218(v),228(v),119(g),106(g)
   224. BD*(   1) C   6 - H  13          0.00719     0.54608   
   225. BD*(   1) C   7 - C   8          0.00794     0.67825   
   226. BD*(   1) C   7 - H  14          0.00721     0.54439   
   227. BD*(   1) C   8 - C   9          0.01185     0.65646   
   228. BD*(   2) C   8 - C   9          0.19834     0.08775  223(v),218(v),232(v),132(g)
                                                    147(g),158(v),119(v)
   229. BD*(   1) C   8 - H  15          0.00755     0.53929   
   230. BD*(   1) C   9 - C  10          0.01317     0.61476   
   231. BD*(   1) C  10 - C  11          0.00719     0.75745   
   232. BD*(   2) C  10 - C  11          0.04596     0.13651   
   233. BD*(   1) C  10 - H  16          0.00793     0.54811   
   234. BD*(   1) C  11 - H  17          0.00672     0.55385   
       -------------------------------
              Total Lewis   36.93212  ( 97.1898%)
        Valence non-Lewis    0.99290  (  2.6129%)
        Rydberg non-Lewis    0.07498  (  0.1973%)
       -------------------------------
            Total unit  1   38.00000  (100.0000%)
           Charge unit  1    0.00000

 Test job not archived.
 1\1\GINC-LEGACY-N0\SP\UM062X\6-311G(d,p)\C9H6O2(1-,2)\TWS35\14-Aug-202
 0\0\\#m062x/6-311g(d,p) charge pop=nbo nosymm nosymm scf=(maxcycle=999
 ) gfinput iop(6/7=3) scrf=(cpcm,solvent=water)\\coumarin\\-1,2\O,0,0.9
 94629,0.112579,0.040491\C,0,2.186287,-0.036202,-0.022417\O,0,2.966347,
 1.091107,-0.068061\C,0,4.328757,1.044801,-0.140882\C,0,5.005744,2.2586
 36,-0.179986\C,0,6.389465,2.249249,-0.252074\C,0,7.096074,1.042101,-0.
 28525\C,0,6.411012,-0.158493,-0.246758\C,0,5.01104,-0.173878,-0.173362
 \C,0,4.22231,-1.382573,-0.129486\C,0,2.882333,-1.318852,-0.057388\H,0,
 4.438559,3.18013,-0.15351\H,0,6.925843,3.189412,-0.282923\H,0,8.176761
 ,1.049603,-0.341463\H,0,6.943766,-1.102013,-0.272659\H,0,4.73275,-2.33
 9061,-0.156115\H,0,2.253131,-2.197045,-0.023825\\Version=EM64L-G09RevD
 .01\State=2-A\HF=-497.0371425\S2=0.763856\S2-1=0.\S2A=0.750126\RMSD=4.
 741e-09\Dipole=2.7069797,0.3246206,-0.146188\Quadrupole=-12.6551246,7.
 7293964,4.9257282,-2.6479011,0.9525969,0.1393357\PG=C01 [X(C9H6O2)]\\@


 THERE'S SMALL CHOICE IN A BOWL OF ROTTEN APPLES.
                     SHAKESPEARE
 Job cpu time:       0 days  0 hours  4 minutes 45.7 seconds.
 File lengths (MBytes):  RWF=     56 Int=      0 D2E=      0 Chk=      4 Scr=      1
 Normal termination of Gaussian 09 at Fri Aug 14 21:01:15 2020.
