 Entering Gaussian System, Link 0=g09
 Initial command:
 /ihome/crc/build/g09/g09-D.01/TAR/g09/l1.exe "/scratch/slurm-4550280/Gau-8546.inp" -scrdir="/scratch/slurm-4550280/"
 Entering Link 1 = /ihome/crc/build/g09/g09-D.01/TAR/g09/l1.exe PID=      8547.
  
 Copyright (c) 1988,1990,1992,1993,1995,1998,2003,2009,2013,
            Gaussian, Inc.  All Rights Reserved.
  
 This is part of the Gaussian(R) 09 program.  It is based on
 the Gaussian(R) 03 system (copyright 2003, Gaussian, Inc.),
 the Gaussian(R) 98 system (copyright 1998, Gaussian, Inc.),
 the Gaussian(R) 94 system (copyright 1995, Gaussian, Inc.),
 the Gaussian 92(TM) system (copyright 1992, Gaussian, Inc.),
 the Gaussian 90(TM) system (copyright 1990, Gaussian, Inc.),
 the Gaussian 88(TM) system (copyright 1988, Gaussian, Inc.),
 the Gaussian 86(TM) system (copyright 1986, Carnegie Mellon
 University), and the Gaussian 82(TM) system (copyright 1983,
 Carnegie Mellon University). Gaussian is a federally registered
 trademark of Gaussian, Inc.
  
 This software contains proprietary and confidential information,
 including trade secrets, belonging to Gaussian, Inc.
  
 This software is provided under written license and may be
 used, copied, transmitted, or stored only in accord with that
 written license.
  
 The following legend is applicable only to US Government
 contracts under FAR:
  
                    RESTRICTED RIGHTS LEGEND
  
 Use, reproduction and disclosure by the US Government is
 subject to restrictions as set forth in subparagraphs (a)
 and (c) of the Commercial Computer Software - Restricted
 Rights clause in FAR 52.227-19.
  
 Gaussian, Inc.
 340 Quinnipiac St., Bldg. 40, Wallingford CT 06492
  
  
 ---------------------------------------------------------------
 Warning -- This program may not be used in any manner that
 competes with the business of Gaussian, Inc. or will provide
 assistance to any competitor of Gaussian, Inc.  The licensee
 of this program is prohibited from giving any competitor of
 Gaussian, Inc. access to this program.  By using this program,
 the user acknowledges that Gaussian, Inc. is engaged in the
 business of creating and licensing software in the field of
 computational chemistry and represents and warrants to the
 licensee that it is not a competitor of Gaussian, Inc. and that
 it will not use this program in any manner prohibited above.
 ---------------------------------------------------------------
  

 Cite this work as:
 Gaussian 09, Revision D.01,
 M. J. Frisch, G. W. Trucks, H. B. Schlegel, G. E. Scuseria, 
 M. A. Robb, J. R. Cheeseman, G. Scalmani, V. Barone, B. Mennucci, 
 G. A. Petersson, H. Nakatsuji, M. Caricato, X. Li, H. P. Hratchian, 
 A. F. Izmaylov, J. Bloino, G. Zheng, J. L. Sonnenberg, M. Hada, 
 M. Ehara, K. Toyota, R. Fukuda, J. Hasegawa, M. Ishida, T. Nakajima, 
 Y. Honda, O. Kitao, H. Nakai, T. Vreven, J. A. Montgomery, Jr., 
 J. E. Peralta, F. Ogliaro, M. Bearpark, J. J. Heyd, E. Brothers, 
 K. N. Kudin, V. N. Staroverov, T. Keith, R. Kobayashi, J. Normand, 
 K. Raghavachari, A. Rendell, J. C. Burant, S. S. Iyengar, J. Tomasi, 
 M. Cossi, N. Rega, J. M. Millam, M. Klene, J. E. Knox, J. B. Cross, 
 V. Bakken, C. Adamo, J. Jaramillo, R. Gomperts, R. E. Stratmann, 
 O. Yazyev, A. J. Austin, R. Cammi, C. Pomelli, J. W. Ochterski, 
 R. L. Martin, K. Morokuma, V. G. Zakrzewski, G. A. Voth, 
 P. Salvador, J. J. Dannenberg, S. Dapprich, A. D. Daniels, 
 O. Farkas, J. B. Foresman, J. V. Ortiz, J. Cioslowski, 
 and D. J. Fox, Gaussian, Inc., Wallingford CT, 2013.
 
 ******************************************
 Gaussian 09:  EM64L-G09RevD.01 24-Apr-2013
                14-Aug-2020 
 ******************************************
 %Nproc=4
 Will use up to    4 processors via shared memory.
 %mem=10GB
 ----------------------------------------------------------------------
 #m062x/6-311g(d,p) charge pop = nbo opt=maxcycle=640 freq nosymm scf=(
 maxcycle=999) gfinput iop(6/7=3)
 ----------------------------------------------------------------------
 1/6=640,10=7,14=-1,18=10,26=3,28=-2,38=1,125=101/1,3;
 2/12=2,15=1,17=6,18=5,29=2,40=1/2;
 3/5=4,6=6,7=101,11=2,16=1,24=10,25=1,30=1,71=1,74=-55/1,2,3;
 4//1;
 5/5=2,7=999,38=5/2;
 6/7=3,8=2,9=2,10=2,28=1,40=1/1,7;
 7/7=1,16=-2,29=1,30=1/1,2,3,16;
 1/6=640,10=7,14=-1,18=10,26=3,28=-2/3(2);
 2/15=1,29=1/2;
 99/12=1/99;
 2/15=1,29=1/2;
 3/5=4,6=6,7=101,11=2,16=1,25=1,30=1,71=1,74=-55/1,2,3;
 4/5=5,16=3,69=1/1;
 5/5=2,7=999,38=5/2;
 7/7=1,16=-2,30=1/1,2,3,16;
 1/6=640,14=-1,18=10,26=3,28=-2/3(-5);
 2/15=1,29=1/2;
 6/7=3,8=2,9=2,10=2,19=2,28=1,40=1/1,7;
 99/9=1,12=1/99;
 --------
 c1ccccc1
 --------
 Symbolic Z-matrix:
 Charge =  0 Multiplicity = 1
 C                    -0.75015   1.17399   0.01728 
 C                     0.64008   1.24728   0.03274 
 C                     1.39878   0.07964   0.03217 
 C                     0.76731  -1.161     0.01622 
 C                    -0.62292  -1.23429   0.00075 
 C                    -1.38162  -0.06665   0.00132 
 H                    -1.34077   2.08274   0.01774 
 H                     1.13202   2.21283   0.04555 
 H                     2.48094   0.13647   0.04423 
 H                     1.35793  -2.06975   0.01575 
 H                    -1.11486  -2.19984  -0.01206 
 H                    -2.46378  -0.12348  -0.01074 
 
 Background charge distribution read from input stream:

 GradGradGradGradGradGradGradGradGradGradGradGradGradGradGradGradGradGrad
 Berny optimization.
 Initialization pass.
 No Z-matrix variables, so optimization will use Cartesian coordinates.
 Trust Radius=3.00D-01 FncErr=1.00D-07 GrdErr=1.00D-06
 Number of steps in this run=    100 maximum allowed number of steps=    100.
 GradGradGradGradGradGradGradGradGradGradGradGradGradGradGradGradGradGrad

 ---------------------------------------------------------------------------------------------------
                            Z-MATRIX (ANGSTROMS AND DEGREES)
   CD    Cent   Atom    N1       Length/X        N2       Alpha/Y        N3        Beta/Z          J
 ---------------------------------------------------------------------------------------------------
      1      1  C        0  -0.750153          1.173991          0.017275
      2      2  C        0   0.640083          1.247278          0.032744
      3      3  C        0   1.398782          0.079643          0.032169
      4      4  C        0   0.767313         -1.160999          0.016215
      5      5  C        0  -0.622923         -1.234286          0.000745
      6      6  C        0  -1.381622         -0.066651          0.001321
      7      7  H        0  -1.340765          2.082736          0.017743
      8      8  H        0   1.132017          2.212826          0.045549
      9      9  H        0   2.480944          0.136473          0.044227
     10     10  H        0   1.357925         -2.069745          0.015747
     11     11  H        0  -1.114857         -2.199835         -0.012061
     12     12  H        0  -2.463784         -0.123481         -0.010737
 ---------------------------------------------------------------------------------------------------
                         Z-Matrix orientation:                         
 ---------------------------------------------------------------------
 Center     Atomic      Atomic             Coordinates (Angstroms)
 Number     Number       Type             X           Y           Z
 ---------------------------------------------------------------------
      1          6           0       -0.750153    1.173991    0.017275
      2          6           0        0.640083    1.247278    0.032744
      3          6           0        1.398782    0.079643    0.032169
      4          6           0        0.767313   -1.160999    0.016215
      5          6           0       -0.622923   -1.234286    0.000745
      6          6           0       -1.381622   -0.066651    0.001321
      7          1           0       -1.340765    2.082736    0.017743
      8          1           0        1.132017    2.212826    0.045549
      9          1           0        2.480944    0.136473    0.044227
     10          1           0        1.357925   -2.069745    0.015747
     11          1           0       -1.114857   -2.199835   -0.012061
     12          1           0       -2.463784   -0.123481   -0.010737
 ---------------------------------------------------------------------
                    Distance matrix (angstroms):
                    1          2          3          4          5
     1  C    0.000000
     2  C    1.392252   0.000000
     3  C    2.411585   1.392478   0.000000
     4  C    2.784759   2.411692   1.392193   0.000000
     5  C    2.411692   2.784667   2.411366   1.392252   0.000000
     6  C    1.392193   2.411366   2.784421   2.411585   1.392478
     7  H    1.083808   2.149878   3.393775   3.868567   3.393850
     8  H    2.150010   1.083719   2.149840   3.393606   3.868385
     9  H    3.393694   2.150067   1.083720   2.149593   3.393355
    10  H    3.868568   3.393851   2.149839   1.083809   2.149878
    11  H    3.393607   3.868386   3.393576   2.150010   1.083719
    12  H    2.149593   3.393355   3.868141   3.393694   2.150067
                    6          7          8          9         10
     6  C    0.000000
     7  H    2.149838   0.000000
     8  H    3.393575   2.476358   0.000000
     9  H    3.868141   4.288834   2.476055   0.000000
    10  H    3.393775   4.952376   4.288629   2.475759   0.000000
    11  H    2.149841   4.288629   4.952104   4.288507   2.476358
    12  H    1.083720   2.475758   4.288506   4.951861   4.288835
                   11         12
    11  H    0.000000
    12  H    2.476056   0.000000
 Symmetry turned off by external request.
 Stoichiometry    C6H6
 Framework group  C1[X(C6H6)]
 Deg. of freedom    30
 Full point group                 C1      NOp   1
 Rotational constants (GHZ):      5.7227070      5.7211431      2.8609625
 Standard basis: 6-311G(d,p) (5D, 7F)
 AO basis set in the form of general basis input (Overlap normalization):
      1 0
 S   6 1.00       0.000000000000
      0.4563240000D+04  0.1966650249D-02
      0.6820240000D+03  0.1523060193D-01
      0.1549730000D+03  0.7612690966D-01
      0.4445530000D+02  0.2608010331D+00
      0.1302900000D+02  0.6164620782D+00
      0.1827730000D+01  0.2210060280D+00
 SP   3 1.00       0.000000000000
      0.2096420000D+02  0.1146600807D+00  0.4024869267D-01
      0.4803310000D+01  0.9199996477D+00  0.2375939567D+00
      0.1459330000D+01 -0.3030682134D-02  0.8158538515D+00
 SP   1 1.00       0.000000000000
      0.4834560000D+00  0.1000000000D+01  0.1000000000D+01
 SP   1 1.00       0.000000000000
      0.1455850000D+00  0.1000000000D+01  0.1000000000D+01
 D   1 1.00       0.000000000000
      0.6260000000D+00  0.1000000000D+01
 ****
      2 0
 S   6 1.00       0.000000000000
      0.4563240000D+04  0.1966650249D-02
      0.6820240000D+03  0.1523060193D-01
      0.1549730000D+03  0.7612690966D-01
      0.4445530000D+02  0.2608010331D+00
      0.1302900000D+02  0.6164620782D+00
      0.1827730000D+01  0.2210060280D+00
 SP   3 1.00       0.000000000000
      0.2096420000D+02  0.1146600807D+00  0.4024869267D-01
      0.4803310000D+01  0.9199996477D+00  0.2375939567D+00
      0.1459330000D+01 -0.3030682134D-02  0.8158538515D+00
 SP   1 1.00       0.000000000000
      0.4834560000D+00  0.1000000000D+01  0.1000000000D+01
 SP   1 1.00       0.000000000000
      0.1455850000D+00  0.1000000000D+01  0.1000000000D+01
 D   1 1.00       0.000000000000
      0.6260000000D+00  0.1000000000D+01
 ****
      3 0
 S   6 1.00       0.000000000000
      0.4563240000D+04  0.1966650249D-02
      0.6820240000D+03  0.1523060193D-01
      0.1549730000D+03  0.7612690966D-01
      0.4445530000D+02  0.2608010331D+00
      0.1302900000D+02  0.6164620782D+00
      0.1827730000D+01  0.2210060280D+00
 SP   3 1.00       0.000000000000
      0.2096420000D+02  0.1146600807D+00  0.4024869267D-01
      0.4803310000D+01  0.9199996477D+00  0.2375939567D+00
      0.1459330000D+01 -0.3030682134D-02  0.8158538515D+00
 SP   1 1.00       0.000000000000
      0.4834560000D+00  0.1000000000D+01  0.1000000000D+01
 SP   1 1.00       0.000000000000
      0.1455850000D+00  0.1000000000D+01  0.1000000000D+01
 D   1 1.00       0.000000000000
      0.6260000000D+00  0.1000000000D+01
 ****
      4 0
 S   6 1.00       0.000000000000
      0.4563240000D+04  0.1966650249D-02
      0.6820240000D+03  0.1523060193D-01
      0.1549730000D+03  0.7612690966D-01
      0.4445530000D+02  0.2608010331D+00
      0.1302900000D+02  0.6164620782D+00
      0.1827730000D+01  0.2210060280D+00
 SP   3 1.00       0.000000000000
      0.2096420000D+02  0.1146600807D+00  0.4024869267D-01
      0.4803310000D+01  0.9199996477D+00  0.2375939567D+00
      0.1459330000D+01 -0.3030682134D-02  0.8158538515D+00
 SP   1 1.00       0.000000000000
      0.4834560000D+00  0.1000000000D+01  0.1000000000D+01
 SP   1 1.00       0.000000000000
      0.1455850000D+00  0.1000000000D+01  0.1000000000D+01
 D   1 1.00       0.000000000000
      0.6260000000D+00  0.1000000000D+01
 ****
      5 0
 S   6 1.00       0.000000000000
      0.4563240000D+04  0.1966650249D-02
      0.6820240000D+03  0.1523060193D-01
      0.1549730000D+03  0.7612690966D-01
      0.4445530000D+02  0.2608010331D+00
      0.1302900000D+02  0.6164620782D+00
      0.1827730000D+01  0.2210060280D+00
 SP   3 1.00       0.000000000000
      0.2096420000D+02  0.1146600807D+00  0.4024869267D-01
      0.4803310000D+01  0.9199996477D+00  0.2375939567D+00
      0.1459330000D+01 -0.3030682134D-02  0.8158538515D+00
 SP   1 1.00       0.000000000000
      0.4834560000D+00  0.1000000000D+01  0.1000000000D+01
 SP   1 1.00       0.000000000000
      0.1455850000D+00  0.1000000000D+01  0.1000000000D+01
 D   1 1.00       0.000000000000
      0.6260000000D+00  0.1000000000D+01
 ****
      6 0
 S   6 1.00       0.000000000000
      0.4563240000D+04  0.1966650249D-02
      0.6820240000D+03  0.1523060193D-01
      0.1549730000D+03  0.7612690966D-01
      0.4445530000D+02  0.2608010331D+00
      0.1302900000D+02  0.6164620782D+00
      0.1827730000D+01  0.2210060280D+00
 SP   3 1.00       0.000000000000
      0.2096420000D+02  0.1146600807D+00  0.4024869267D-01
      0.4803310000D+01  0.9199996477D+00  0.2375939567D+00
      0.1459330000D+01 -0.3030682134D-02  0.8158538515D+00
 SP   1 1.00       0.000000000000
      0.4834560000D+00  0.1000000000D+01  0.1000000000D+01
 SP   1 1.00       0.000000000000
      0.1455850000D+00  0.1000000000D+01  0.1000000000D+01
 D   1 1.00       0.000000000000
      0.6260000000D+00  0.1000000000D+01
 ****
      7 0
 S   3 1.00       0.000000000000
      0.3386500000D+02  0.2549381454D-01
      0.5094790000D+01  0.1903731086D+00
      0.1158790000D+01  0.8521614860D+00
 S   1 1.00       0.000000000000
      0.3258400000D+00  0.1000000000D+01
 S   1 1.00       0.000000000000
      0.1027410000D+00  0.1000000000D+01
 P   1 1.00       0.000000000000
      0.7500000000D+00  0.1000000000D+01
 ****
      8 0
 S   3 1.00       0.000000000000
      0.3386500000D+02  0.2549381454D-01
      0.5094790000D+01  0.1903731086D+00
      0.1158790000D+01  0.8521614860D+00
 S   1 1.00       0.000000000000
      0.3258400000D+00  0.1000000000D+01
 S   1 1.00       0.000000000000
      0.1027410000D+00  0.1000000000D+01
 P   1 1.00       0.000000000000
      0.7500000000D+00  0.1000000000D+01
 ****
      9 0
 S   3 1.00       0.000000000000
      0.3386500000D+02  0.2549381454D-01
      0.5094790000D+01  0.1903731086D+00
      0.1158790000D+01  0.8521614860D+00
 S   1 1.00       0.000000000000
      0.3258400000D+00  0.1000000000D+01
 S   1 1.00       0.000000000000
      0.1027410000D+00  0.1000000000D+01
 P   1 1.00       0.000000000000
      0.7500000000D+00  0.1000000000D+01
 ****
     10 0
 S   3 1.00       0.000000000000
      0.3386500000D+02  0.2549381454D-01
      0.5094790000D+01  0.1903731086D+00
      0.1158790000D+01  0.8521614860D+00
 S   1 1.00       0.000000000000
      0.3258400000D+00  0.1000000000D+01
 S   1 1.00       0.000000000000
      0.1027410000D+00  0.1000000000D+01
 P   1 1.00       0.000000000000
      0.7500000000D+00  0.1000000000D+01
 ****
     11 0
 S   3 1.00       0.000000000000
      0.3386500000D+02  0.2549381454D-01
      0.5094790000D+01  0.1903731086D+00
      0.1158790000D+01  0.8521614860D+00
 S   1 1.00       0.000000000000
      0.3258400000D+00  0.1000000000D+01
 S   1 1.00       0.000000000000
      0.1027410000D+00  0.1000000000D+01
 P   1 1.00       0.000000000000
      0.7500000000D+00  0.1000000000D+01
 ****
     12 0
 S   3 1.00       0.000000000000
      0.3386500000D+02  0.2549381454D-01
      0.5094790000D+01  0.1903731086D+00
      0.1158790000D+01  0.8521614860D+00
 S   1 1.00       0.000000000000
      0.3258400000D+00  0.1000000000D+01
 S   1 1.00       0.000000000000
      0.1027410000D+00  0.1000000000D+01
 P   1 1.00       0.000000000000
      0.7500000000D+00  0.1000000000D+01
 ****

   144 basis functions,   240 primitive gaussians,   150 cartesian basis functions
    21 alpha electrons       21 beta electrons
       nuclear repulsion energy       203.8128760636 Hartrees.
 NAtoms=   12 NActive=   12 NUniq=   12 SFac= 1.00D+00 NAtFMM=   60 NAOKFM=F Big=F
 Integral buffers will be    131072 words long.
 Raffenetti 2 integral format.
 Two-electron integral symmetry is turned off.
 One-electron integrals computed using PRISM.
 NBasis=   144 RedAO= T EigKep=  2.10D-04  NBF=   144
 NBsUse=   144 1.00D-06 EigRej= -1.00D+00 NBFU=   144
 ExpMin= 1.03D-01 ExpMax= 4.56D+03 ExpMxC= 6.82D+02 IAcc=1 IRadAn=         1 AccDes= 0.00D+00
 Harris functional with IExCor= 1009 and IRadAn=       1 diagonalized for initial guess.
 HarFok:  IExCor= 1009 AccDes= 0.00D+00 IRadAn=         1 IDoV= 1 UseB2=F ITyADJ=14
 ICtDFT=  3500011 ScaDFX=  1.000000  1.000000  1.000000  1.000000
 FoFCou: FMM=F IPFlag=           0 FMFlag=      100000 FMFlg1=           0
         NFxFlg=           0 DoJE=T BraDBF=F KetDBF=T FulRan=T
         wScrn=  0.000000 ICntrl=     500 IOpCl=  0 I1Cent=   200000004 NGrid=           0
         NMat0=    1 NMatS0=      1 NMatT0=    0 NMatD0=    1 NMtDS0=    0 NMtDT0=    0
 Symmetry not used in FoFCou.
 Keep R1 ints in memory in canonical form, NReq=57297266.
 Requested convergence on RMS density matrix=1.00D-08 within 999 cycles.
 Requested convergence on MAX density matrix=1.00D-06.
 Requested convergence on             energy=1.00D-06.
 No special actions if energy rises.
 Integral accuracy reduced to 1.0D-05 until final iterations.
 Initial convergence to 1.0D-05 achieved.  Increase integral accuracy.
 SCF Done:  E(RM062X) =  -232.196148000     A.U. after   12 cycles
            NFock= 12  Conv=0.56D-08     -V/T= 2.0042

 **********************************************************************

            Population analysis using the SCF density.

 **********************************************************************

 Alpha  occ. eigenvalues --  -10.54231 -10.54196 -10.54195 -10.54116 -10.54115
 Alpha  occ. eigenvalues --  -10.54077  -0.95910  -0.84228  -0.84221  -0.68544
 Alpha  occ. eigenvalues --   -0.68539  -0.60086  -0.53315  -0.51272  -0.48828
 Alpha  occ. eigenvalues --   -0.48822  -0.43815  -0.40243  -0.40239  -0.30692
 Alpha  occ. eigenvalues --   -0.30685
 Alpha virt. eigenvalues --    0.02773   0.02779   0.07771   0.11166   0.11167
 Alpha virt. eigenvalues --    0.14551   0.14554   0.17043   0.20265   0.30682
 Alpha virt. eigenvalues --    0.30688   0.32864   0.32874   0.34890   0.38129
 Alpha virt. eigenvalues --    0.42960   0.45134   0.45140   0.47176   0.48857
 Alpha virt. eigenvalues --    0.48863   0.49198   0.49262   0.49267   0.57189
 Alpha virt. eigenvalues --    0.57193   0.58702   0.64346   0.64350   0.65317
 Alpha virt. eigenvalues --    0.65947   0.65956   0.69310   0.72463   0.77506
 Alpha virt. eigenvalues --    0.77514   0.77824   0.77832   0.86244   0.89539
 Alpha virt. eigenvalues --    0.89548   0.89935   0.99039   1.04609   1.04616
 Alpha virt. eigenvalues --    1.06850   1.13760   1.13769   1.20028   1.20031
 Alpha virt. eigenvalues --    1.27611   1.30598   1.45055   1.49195   1.49203
 Alpha virt. eigenvalues --    1.51993   1.60049   1.60267   1.60277   1.62583
 Alpha virt. eigenvalues --    1.62589   1.68554   1.68571   1.74780   1.78153
 Alpha virt. eigenvalues --    1.78155   1.81134   1.81149   1.88699   1.93624
 Alpha virt. eigenvalues --    1.93636   1.94567   1.96074   1.96084   1.96137
 Alpha virt. eigenvalues --    2.02524   2.02539   2.11055   2.11062   2.24671
 Alpha virt. eigenvalues --    2.34918   2.35175   2.35206   2.37411   2.41553
 Alpha virt. eigenvalues --    2.41566   2.61292   2.62454   2.62463   2.62852
 Alpha virt. eigenvalues --    2.64682   2.65400   2.65412   2.66877   2.66900
 Alpha virt. eigenvalues --    2.71629   2.77847   2.77850   2.90829   2.90830
 Alpha virt. eigenvalues --    2.93322   2.94746   2.94765   3.11029   3.14179
 Alpha virt. eigenvalues --    3.39017   3.39040   3.51599   3.52738   3.52761
 Alpha virt. eigenvalues --    3.70976   4.00454   4.00467   4.12695   4.14814
 Alpha virt. eigenvalues --    4.14841   4.85712  23.60620  24.02942  24.03005
 Alpha virt. eigenvalues --   24.17612  24.17668  24.27891
     Molecular Orbital Coefficients:
                           1         2         3         4         5
                           O         O         O         O         O
     Eigenvalues --   -10.54231 -10.54196 -10.54195 -10.54116 -10.54115
   1 1   C  1S          0.22774   0.11730   0.30187  -0.11386   0.30699
   2        2S          0.18739   0.09643   0.24816  -0.09358   0.25232
   3        2PX         0.00015   0.00059  -0.00020   0.00046   0.00000
   4        2PY        -0.00023   0.00036  -0.00019   0.00019   0.00032
   5        2PZ         0.00000   0.00001   0.00000   0.00001   0.00000
   6        3S          0.00470   0.00279   0.00719  -0.00262   0.00706
   7        3PX        -0.00072  -0.00221   0.00093  -0.00127   0.00008
   8        3PY         0.00109  -0.00148   0.00048  -0.00045  -0.00100
   9        3PZ         0.00000  -0.00003   0.00001  -0.00002  -0.00001
  10        4S         -0.00109  -0.00041  -0.00131   0.00143  -0.00389
  11        4PX         0.00007  -0.00011  -0.00077   0.00087  -0.00156
  12        4PY        -0.00011   0.00047   0.00106  -0.00076   0.00261
  13        4PZ         0.00000   0.00000   0.00000   0.00000   0.00000
  14        5D 0       -0.00020  -0.00019  -0.00049   0.00036  -0.00098
  15        5D+1        0.00000  -0.00001   0.00001  -0.00001   0.00002
  16        5D-1        0.00000   0.00002   0.00000   0.00000   0.00002
  17        5D+2       -0.00028  -0.00130   0.00044  -0.00071  -0.00009
  18        5D-2       -0.00061   0.00051  -0.00036   0.00017   0.00044
  19 2   C  1S          0.23335   0.32414   0.04921   0.31874  -0.05503
  20        2S          0.19200   0.26646   0.04045   0.26197  -0.04523
  21        2PX        -0.00012   0.00008  -0.00066   0.00005  -0.00048
  22        2PY        -0.00024  -0.00009   0.00033   0.00030   0.00019
  23        2PZ         0.00000   0.00000   0.00000   0.00000   0.00000
  24        3S          0.00483   0.00772   0.00117   0.00734  -0.00127
  25        3PX         0.00058  -0.00043   0.00250  -0.00021   0.00130
  26        3PY         0.00115   0.00009  -0.00130  -0.00094  -0.00047
  27        3PZ         0.00002   0.00000   0.00002  -0.00001   0.00001
  28        4S         -0.00116  -0.00160  -0.00029  -0.00407   0.00071
  29        4PX        -0.00003   0.00071  -0.00004   0.00140  -0.00055
  30        4PY        -0.00006   0.00134   0.00031   0.00287  -0.00034
  31        4PZ         0.00000   0.00002   0.00000   0.00004  -0.00001
  32        5D 0       -0.00021  -0.00053  -0.00008  -0.00102   0.00018
  33        5D+1        0.00000   0.00001  -0.00002   0.00002  -0.00001
  34        5D-1        0.00001   0.00001   0.00000   0.00001   0.00000
  35        5D+2       -0.00039   0.00009  -0.00121   0.00012  -0.00065
  36        5D-2        0.00054   0.00026  -0.00085  -0.00039  -0.00038
  37 3   C  1S          0.22949   0.20064  -0.25595  -0.21109  -0.24872
  38        2S          0.18883   0.16494  -0.21041  -0.17350  -0.20443
  39        2PX        -0.00027  -0.00006   0.00001  -0.00020  -0.00020
  40        2PY        -0.00001   0.00058   0.00046   0.00039  -0.00035
  41        2PZ         0.00000   0.00000   0.00000   0.00000   0.00000
  42        3S          0.00474   0.00478  -0.00609  -0.00485  -0.00573
  43        3PX         0.00130   0.00005   0.00018   0.00065   0.00068
  44        3PY         0.00005  -0.00223  -0.00177  -0.00103   0.00093
  45        3PZ         0.00001  -0.00002  -0.00001   0.00000   0.00001
  46        4S         -0.00111  -0.00079   0.00124   0.00267   0.00317
  47        4PX        -0.00011   0.00081  -0.00118  -0.00209  -0.00247
  48        4PY         0.00000   0.00018   0.00005   0.00015  -0.00035
  49        4PZ         0.00000   0.00001  -0.00001  -0.00002  -0.00003
  50        5D 0       -0.00020  -0.00032   0.00042   0.00067   0.00080
  51        5D+1        0.00001   0.00001   0.00000  -0.00001  -0.00001
  52        5D-1        0.00000   0.00002   0.00001   0.00000  -0.00002
  53        5D+2        0.00067  -0.00002  -0.00022   0.00018   0.00035
  54        5D-2        0.00008   0.00118   0.00092   0.00061  -0.00045
  55 4   C  1S          0.22778  -0.11727  -0.30187  -0.11389   0.30700
  56        2S          0.18742  -0.09640  -0.24816  -0.09361   0.25233
  57        2PX        -0.00015   0.00059  -0.00020  -0.00046   0.00000
  58        2PY         0.00023   0.00036  -0.00019  -0.00019  -0.00032
  59        2PZ         0.00000   0.00001   0.00000  -0.00001   0.00000
  60        3S          0.00470  -0.00279  -0.00719  -0.00262   0.00706
  61        3PX         0.00072  -0.00221   0.00093   0.00127  -0.00008
  62        3PY        -0.00109  -0.00148   0.00048   0.00045   0.00100
  63        3PZ         0.00000  -0.00003   0.00001   0.00002   0.00001
  64        4S         -0.00109   0.00041   0.00131   0.00144  -0.00389
  65        4PX        -0.00007  -0.00011  -0.00077  -0.00087   0.00156
  66        4PY         0.00011   0.00047   0.00106   0.00076  -0.00261
  67        4PZ         0.00000   0.00000   0.00000   0.00000   0.00000
  68        5D 0       -0.00020   0.00019   0.00049   0.00036  -0.00098
  69        5D+1        0.00000   0.00001  -0.00001  -0.00001   0.00002
  70        5D-1        0.00000  -0.00002   0.00000   0.00000   0.00002
  71        5D+2       -0.00028   0.00130  -0.00044  -0.00071  -0.00009
  72        5D-2       -0.00061  -0.00051   0.00036   0.00017   0.00044
  73 5   C  1S          0.23339  -0.32412  -0.04918   0.31875  -0.05506
  74        2S          0.19203  -0.26645  -0.04043   0.26198  -0.04525
  75        2PX         0.00012   0.00008  -0.00066  -0.00005   0.00048
  76        2PY         0.00024  -0.00009   0.00033  -0.00030  -0.00019
  77        2PZ         0.00000   0.00000   0.00000   0.00000   0.00000
  78        3S          0.00483  -0.00772  -0.00117   0.00734  -0.00127
  79        3PX        -0.00058  -0.00043   0.00250   0.00021  -0.00130
  80        3PY        -0.00115   0.00009  -0.00130   0.00094   0.00047
  81        3PZ        -0.00002   0.00000   0.00002   0.00001  -0.00001
  82        4S         -0.00116   0.00160   0.00029  -0.00407   0.00071
  83        4PX         0.00003   0.00071  -0.00004  -0.00140   0.00055
  84        4PY         0.00006   0.00134   0.00031  -0.00287   0.00034
  85        4PZ         0.00000   0.00002   0.00000  -0.00004   0.00001
  86        5D 0       -0.00021   0.00053   0.00008  -0.00102   0.00018
  87        5D+1        0.00000  -0.00001   0.00002   0.00002  -0.00001
  88        5D-1        0.00001  -0.00001   0.00000   0.00001   0.00000
  89        5D+2       -0.00039  -0.00009   0.00121   0.00012  -0.00065
  90        5D-2        0.00054  -0.00026   0.00085  -0.00039  -0.00038
  91 6   C  1S          0.22950  -0.20060   0.25598  -0.21113  -0.24869
  92        2S          0.18883  -0.16491   0.21043  -0.17353  -0.20440
  93        2PX         0.00027  -0.00006   0.00001   0.00020   0.00020
  94        2PY         0.00001   0.00058   0.00046  -0.00039   0.00035
  95        2PZ         0.00000   0.00000   0.00000   0.00000   0.00000
  96        3S          0.00474  -0.00478   0.00609  -0.00485  -0.00573
  97        3PX        -0.00130   0.00005   0.00018  -0.00065  -0.00068
  98        3PY        -0.00005  -0.00223  -0.00177   0.00103  -0.00093
  99        3PZ        -0.00001  -0.00002  -0.00001   0.00000  -0.00001
 100        4S         -0.00111   0.00079  -0.00124   0.00267   0.00317
 101        4PX         0.00011   0.00081  -0.00118   0.00209   0.00247
 102        4PY         0.00000   0.00018   0.00005  -0.00015   0.00035
 103        4PZ         0.00000   0.00001  -0.00001   0.00002   0.00003
 104        5D 0       -0.00020   0.00032  -0.00042   0.00067   0.00080
 105        5D+1        0.00001  -0.00001   0.00000  -0.00001  -0.00001
 106        5D-1        0.00000  -0.00002  -0.00001   0.00000  -0.00002
 107        5D+2        0.00067   0.00002   0.00022   0.00018   0.00035
 108        5D-2        0.00008  -0.00118  -0.00092   0.00061  -0.00045
 109 7   H  1S         -0.00002   0.00009   0.00024  -0.00012   0.00033
 110        2S         -0.00164  -0.00076  -0.00196   0.00064  -0.00173
 111        3S          0.00084   0.00012   0.00029   0.00007  -0.00022
 112        4PX        -0.00061  -0.00027  -0.00052   0.00011  -0.00041
 113        4PY         0.00093   0.00029   0.00085  -0.00025   0.00059
 114        4PZ         0.00000   0.00000   0.00000   0.00000   0.00000
 115 8   H  1S         -0.00002   0.00026   0.00004   0.00035  -0.00006
 116        2S         -0.00168  -0.00212  -0.00032  -0.00179   0.00031
 117        3S          0.00084   0.00029   0.00004  -0.00024   0.00004
 118        4PX         0.00051   0.00047   0.00014   0.00034  -0.00001
 119        4PY         0.00101   0.00096   0.00011   0.00066  -0.00014
 120        4PZ         0.00001   0.00001   0.00000   0.00001   0.00000
 121 9   H  1S         -0.00002   0.00016  -0.00021  -0.00023  -0.00027
 122        2S         -0.00166  -0.00130   0.00167   0.00119   0.00140
 123        3S          0.00084   0.00020  -0.00023   0.00014   0.00018
 124        4PX         0.00112   0.00067  -0.00084  -0.00050  -0.00058
 125        4PY         0.00006  -0.00003  -0.00009  -0.00007   0.00000
 126        4PZ         0.00001   0.00001  -0.00001  -0.00001  -0.00001
 127 10  H  1S         -0.00002  -0.00009  -0.00024  -0.00012   0.00033
 128        2S         -0.00164   0.00076   0.00196   0.00064  -0.00173
 129        3S          0.00084  -0.00012  -0.00029   0.00007  -0.00022
 130        4PX         0.00061  -0.00027  -0.00052  -0.00011   0.00041
 131        4PY        -0.00093   0.00029   0.00085   0.00025  -0.00059
 132        4PZ         0.00000   0.00000   0.00000   0.00000   0.00000
 133 11  H  1S         -0.00002  -0.00026  -0.00004   0.00035  -0.00006
 134        2S         -0.00168   0.00212   0.00032  -0.00179   0.00031
 135        3S          0.00084  -0.00029  -0.00004  -0.00024   0.00004
 136        4PX        -0.00051   0.00047   0.00014  -0.00034   0.00001
 137        4PY        -0.00101   0.00096   0.00011  -0.00066   0.00014
 138        4PZ        -0.00001   0.00001   0.00000  -0.00001   0.00000
 139 12  H  1S         -0.00002  -0.00016   0.00021  -0.00023  -0.00027
 140        2S         -0.00166   0.00130  -0.00167   0.00119   0.00140
 141        3S          0.00084  -0.00020   0.00023   0.00014   0.00018
 142        4PX        -0.00112   0.00067  -0.00084   0.00050   0.00058
 143        4PY        -0.00006  -0.00003  -0.00009   0.00007   0.00000
 144        4PZ        -0.00001   0.00001  -0.00001   0.00001   0.00001
                           6         7         8         9        10
                           O         O         O         O         O
     Eigenvalues --   -10.54077  -0.95910  -0.84228  -0.84221  -0.68544
   1 1   C  1S          0.23287  -0.05036  -0.07018  -0.00155   0.01772
   2        2S          0.19136  -0.08039  -0.11269  -0.00249   0.02881
   3        2PX        -0.00014   0.01528   0.00513   0.04272   0.07895
   4        2PY         0.00022  -0.02352  -0.00996   0.02747   0.03994
   5        2PZ         0.00000  -0.00001  -0.00002   0.00066   0.00114
   6        3S          0.00567   0.20626   0.29264   0.00646  -0.07644
   7        3PX         0.00029   0.02249   0.00743   0.06312   0.11326
   8        3PY        -0.00048  -0.03460  -0.01449   0.04059   0.05682
   9        3PZ         0.00000  -0.00001  -0.00003   0.00098   0.00164
  10        4S         -0.01472   0.09092   0.15157   0.00343  -0.05301
  11        4PX        -0.00483   0.00455   0.00301   0.02224   0.04311
  12        4PY         0.00743  -0.00700  -0.00570   0.01423   0.02270
  13        4PZ         0.00000   0.00000  -0.00001   0.00034   0.00063
  14        5D 0       -0.00084  -0.00878  -0.00879  -0.00020   0.00165
  15        5D+1        0.00002   0.00017   0.00021   0.00008   0.00002
  16        5D-1        0.00001   0.00012   0.00015  -0.00012  -0.00011
  17        5D+2        0.00012   0.00018   0.00161   0.01012   0.00673
  18        5D-2        0.00030   0.00041   0.00422  -0.00439  -0.00365
  19 2   C  1S         -0.22722  -0.05035  -0.03375  -0.06155  -0.05404
  20        2S         -0.18672  -0.08037  -0.05419  -0.09883  -0.08787
  21        2PX        -0.00012  -0.01273  -0.04212   0.01732  -0.00295
  22        2PY        -0.00023  -0.02498   0.01542  -0.01978   0.03408
  23        2PZ         0.00000  -0.00032  -0.00033   0.00004   0.00023
  24        3S         -0.00554   0.20622   0.14073   0.25666   0.23316
  25        3PX         0.00026  -0.01874  -0.06219   0.02570  -0.00364
  26        3PY         0.00050  -0.03678   0.02291  -0.02902   0.04997
  27        3PZ         0.00001  -0.00047  -0.00049   0.00006   0.00035
  28        4S          0.01469   0.09094   0.07288   0.13287   0.16172
  29        4PX        -0.00401  -0.00381  -0.02202   0.00877  -0.00279
  30        4PY        -0.00787  -0.00746   0.00776  -0.01073   0.01662
  31        4PZ        -0.00010  -0.00010  -0.00018   0.00002   0.00010
  32        5D 0        0.00083  -0.00878  -0.00423  -0.00771  -0.00503
  33        5D+1       -0.00002   0.00016   0.00021   0.00008   0.00012
  34        5D-1       -0.00001   0.00011   0.00003   0.00005   0.00004
  35        5D+2       -0.00020   0.00026   0.00911  -0.00196   0.00235
  36        5D-2        0.00026  -0.00036   0.00394  -0.00632  -0.00054
  37 3   C  1S          0.23094  -0.05035   0.03644  -0.06000   0.03632
  38        2S          0.18978  -0.08037   0.05851  -0.09634   0.05905
  39        2PX         0.00026  -0.02799   0.00348  -0.01088  -0.02319
  40        2PY         0.00002  -0.00149   0.04367   0.02581   0.06873
  41        2PZ         0.00000  -0.00031   0.00036   0.00008   0.00026
  42        3S          0.00563   0.20623  -0.15193   0.25018  -0.15670
  43        3PX        -0.00056  -0.04121   0.00501  -0.01586  -0.03409
  44        3PY        -0.00006  -0.00219   0.06453   0.03815   0.09837
  45        3PZ        -0.00001  -0.00046   0.00053   0.00012   0.00037
  46        4S         -0.01470   0.09098  -0.07867   0.12970  -0.10868
  47        4PX         0.00884  -0.00838   0.00213  -0.00626  -0.01113
  48        4PY         0.00047  -0.00044   0.02271   0.01340   0.03805
  49        4PZ         0.00010  -0.00009   0.00019   0.00003   0.00017
  50        5D 0       -0.00084  -0.00878   0.00456  -0.00752   0.00338
  51        5D+1        0.00001   0.00016  -0.00012   0.00006  -0.00009
  52        5D-1        0.00001   0.00012  -0.00018   0.00006  -0.00012
  53        5D+2       -0.00032  -0.00045   0.00332  -0.00324   0.00185
  54        5D-2       -0.00002  -0.00005  -0.00914  -0.00610  -0.00590
  55 4   C  1S         -0.23283  -0.05036   0.07018   0.00155   0.01772
  56        2S         -0.19133  -0.08039   0.11269   0.00249   0.02881
  57        2PX        -0.00014  -0.01528   0.00513   0.04272  -0.07895
  58        2PY         0.00022   0.02352  -0.00996   0.02747  -0.03994
  59        2PZ         0.00000   0.00001  -0.00002   0.00066  -0.00114
  60        3S         -0.00567   0.20626  -0.29264  -0.00646  -0.07644
  61        3PX         0.00029  -0.02249   0.00743   0.06312  -0.11326
  62        3PY        -0.00048   0.03460  -0.01449   0.04059  -0.05682
  63        3PZ         0.00000   0.00001  -0.00002   0.00098  -0.00164
  64        4S          0.01472   0.09092  -0.15157  -0.00343  -0.05301
  65        4PX        -0.00483  -0.00455   0.00301   0.02224  -0.04311
  66        4PY         0.00743   0.00700  -0.00570   0.01423  -0.02270
  67        4PZ         0.00000   0.00000  -0.00001   0.00034  -0.00063
  68        5D 0        0.00084  -0.00878   0.00879   0.00020   0.00165
  69        5D+1       -0.00002   0.00017  -0.00021  -0.00008   0.00002
  70        5D-1       -0.00001   0.00012  -0.00015   0.00012  -0.00011
  71        5D+2       -0.00012   0.00018  -0.00161  -0.01012   0.00673
  72        5D-2       -0.00030   0.00041  -0.00422   0.00439  -0.00365
  73 5   C  1S          0.22718  -0.05035   0.03375   0.06155  -0.05404
  74        2S          0.18669  -0.08037   0.05419   0.09883  -0.08787
  75        2PX        -0.00012   0.01273  -0.04212   0.01732   0.00295
  76        2PY        -0.00023   0.02498   0.01542  -0.01978  -0.03408
  77        2PZ         0.00000   0.00032  -0.00033   0.00004  -0.00023
  78        3S          0.00554   0.20622  -0.14073  -0.25666   0.23316
  79        3PX         0.00026   0.01874  -0.06219   0.02570   0.00364
  80        3PY         0.00050   0.03678   0.02291  -0.02902  -0.04997
  81        3PZ         0.00001   0.00047  -0.00049   0.00006  -0.00035
  82        4S         -0.01469   0.09094  -0.07288  -0.13287   0.16172
  83        4PX        -0.00401   0.00381  -0.02202   0.00877   0.00279
  84        4PY        -0.00787   0.00746   0.00776  -0.01073  -0.01662
  85        4PZ        -0.00010   0.00010  -0.00018   0.00002  -0.00010
  86        5D 0       -0.00083  -0.00878   0.00423   0.00771  -0.00503
  87        5D+1        0.00002   0.00016  -0.00021  -0.00008   0.00012
  88        5D-1        0.00001   0.00011  -0.00003  -0.00005   0.00004
  89        5D+2        0.00020   0.00026  -0.00911   0.00196   0.00235
  90        5D-2       -0.00026  -0.00036  -0.00394   0.00632  -0.00054
  91 6   C  1S         -0.23094  -0.05035  -0.03644   0.06000   0.03632
  92        2S         -0.18978  -0.08037  -0.05851   0.09634   0.05905
  93        2PX         0.00026   0.02799   0.00348  -0.01088   0.02319
  94        2PY         0.00002   0.00149   0.04367   0.02581  -0.06873
  95        2PZ         0.00000   0.00031   0.00036   0.00008  -0.00026
  96        3S         -0.00563   0.20623   0.15193  -0.25018  -0.15670
  97        3PX        -0.00056   0.04121   0.00501  -0.01586   0.03409
  98        3PY        -0.00006   0.00219   0.06453   0.03815  -0.09837
  99        3PZ        -0.00001   0.00046   0.00053   0.00012  -0.00037
 100        4S          0.01470   0.09098   0.07867  -0.12970  -0.10868
 101        4PX         0.00884   0.00838   0.00213  -0.00626   0.01113
 102        4PY         0.00047   0.00044   0.02271   0.01340  -0.03805
 103        4PZ         0.00010   0.00009   0.00019   0.00003  -0.00017
 104        5D 0        0.00084  -0.00878  -0.00456   0.00752   0.00338
 105        5D+1       -0.00001   0.00016   0.00012  -0.00006  -0.00009
 106        5D-1       -0.00001   0.00012   0.00018  -0.00006  -0.00012
 107        5D+2        0.00032  -0.00045  -0.00332   0.00324   0.00185
 108        5D-2        0.00002  -0.00005   0.00914   0.00610  -0.00590
 109 7   H  1S          0.00034   0.02138   0.04909   0.00108  -0.02314
 110        2S         -0.00208   0.02413   0.05845   0.00130  -0.02964
 111        3S         -0.00128  -0.00286   0.00078   0.00002  -0.00436
 112        4PX        -0.00029   0.00235   0.00514   0.00186   0.00106
 113        4PY         0.00044  -0.00362  -0.00800   0.00096   0.00523
 114        4PZ         0.00000   0.00000   0.00000   0.00003   0.00005
 115 8   H  1S         -0.00034   0.02138   0.02360   0.04307   0.07054
 116        2S          0.00204   0.02413   0.02810   0.05129   0.09037
 117        3S          0.00128  -0.00286   0.00037   0.00068   0.01328
 118        4PX        -0.00023  -0.00196  -0.00371  -0.00289  -0.00595
 119        4PY        -0.00046  -0.00384  -0.00324  -0.00789  -0.00999
 120        4PZ        -0.00001  -0.00005  -0.00006  -0.00009  -0.00014
 121 9   H  1S          0.00034   0.02138  -0.02550   0.04198  -0.04743
 122        2S         -0.00206   0.02415  -0.03036   0.05001  -0.06078
 123        3S         -0.00128  -0.00285  -0.00041   0.00068  -0.00893
 124        4PX         0.00052  -0.00431   0.00484  -0.00818   0.00764
 125        4PY         0.00003  -0.00023   0.00204   0.00065   0.00338
 126        4PZ         0.00001  -0.00005   0.00007  -0.00008   0.00011
 127 10  H  1S         -0.00034   0.02138  -0.04909  -0.00108  -0.02314
 128        2S          0.00208   0.02413  -0.05845  -0.00130  -0.02964
 129        3S          0.00128  -0.00286  -0.00078  -0.00002  -0.00436
 130        4PX        -0.00029  -0.00235   0.00514   0.00186  -0.00106
 131        4PY         0.00044   0.00362  -0.00800   0.00096  -0.00523
 132        4PZ         0.00000   0.00000   0.00000   0.00003  -0.00005
 133 11  H  1S          0.00034   0.02138  -0.02360  -0.04307   0.07054
 134        2S         -0.00204   0.02413  -0.02810  -0.05129   0.09037
 135        3S         -0.00128  -0.00286  -0.00037  -0.00068   0.01328
 136        4PX        -0.00023   0.00196  -0.00371  -0.00289   0.00595
 137        4PY        -0.00046   0.00384  -0.00324  -0.00789   0.00999
 138        4PZ        -0.00001   0.00005  -0.00006  -0.00009   0.00014
 139 12  H  1S         -0.00034   0.02138   0.02550  -0.04198  -0.04743
 140        2S          0.00206   0.02415   0.03036  -0.05001  -0.06078
 141        3S          0.00128  -0.00285   0.00041  -0.00068  -0.00893
 142        4PX         0.00052   0.00431   0.00484  -0.00818  -0.00764
 143        4PY         0.00003   0.00023   0.00204   0.00065  -0.00338
 144        4PZ         0.00001   0.00005   0.00007  -0.00008  -0.00011
                          11        12        13        14        15
                           O         O         O         O         O
     Eigenvalues --    -0.68539  -0.60086  -0.53315  -0.51272  -0.48828
   1 1   C  1S         -0.05217  -0.00490  -0.03155  -0.00003   0.01219
   2        2S         -0.08482  -0.00777  -0.05162  -0.00005   0.01993
   3        2PX         0.00977  -0.04883  -0.03222  -0.10644  -0.08032
   4        2PY         0.03980   0.07515   0.04990  -0.06900   0.10624
   5        2PZ         0.00040   0.00004   0.00002  -0.00165  -0.00005
   6        3S          0.22507   0.01931   0.13729   0.00015  -0.05751
   7        3PX         0.01329  -0.07006  -0.04673  -0.15424  -0.11668
   8        3PY         0.05805   0.10780   0.07236  -0.09999   0.15237
   9        3PZ         0.00058   0.00005   0.00002  -0.00239  -0.00008
  10        4S          0.15619   0.03812   0.16503   0.00017  -0.05032
  11        4PX         0.00674  -0.03645  -0.01960  -0.07837  -0.06459
  12        4PY         0.01992   0.05607   0.03043  -0.05078   0.09865
  13        4PZ         0.00022   0.00003   0.00001  -0.00122   0.00007
  14        5D 0       -0.00486   0.00179  -0.00136   0.00000   0.00029
  15        5D+1        0.00013   0.00004  -0.00017  -0.00004  -0.00007
  16        5D-1        0.00005   0.00002  -0.00010   0.00006   0.00003
  17        5D+2        0.00308   0.00272  -0.00701  -0.00477  -0.00553
  18        5D-2        0.00055   0.00611  -0.01583   0.00209  -0.00081
  19 2   C  1S          0.01074  -0.00491   0.03154   0.00005   0.00880
  20        2S          0.01746  -0.00779   0.05161   0.00008   0.01439
  21        2PX        -0.08382   0.04066  -0.02715   0.11304   0.06798
  22        2PY         0.03619   0.07987  -0.05291  -0.05757   0.07279
  23        2PZ        -0.00063   0.00104  -0.00071   0.00078   0.00131
  24        3S         -0.04633   0.01934  -0.13726  -0.00022  -0.04153
  25        3PX        -0.12012   0.05834  -0.03935   0.16381   0.10096
  26        3PY         0.05158   0.11458  -0.07672  -0.08343   0.10326
  27        3PZ        -0.00091   0.00150  -0.00103   0.00114   0.00191
  28        4S         -0.03215   0.03812  -0.16498  -0.00024  -0.03635
  29        4PX        -0.04604   0.03036  -0.01654   0.08327   0.03964
  30        4PY         0.02041   0.05965  -0.03229  -0.04239   0.07517
  31        4PZ        -0.00034   0.00078  -0.00044   0.00058   0.00102
  32        5D 0        0.00100   0.00180   0.00135   0.00000   0.00021
  33        5D+1        0.00008  -0.00003  -0.00002  -0.00007  -0.00018
  34        5D-1       -0.00001  -0.00011  -0.00025   0.00000   0.00002
  35        5D+2        0.00618   0.00394   0.01018  -0.00420  -0.01234
  36        5D-2        0.00494  -0.00540  -0.01401  -0.00308  -0.00632
  37 3   C  1S          0.04143  -0.00489  -0.03154  -0.00005  -0.00342
  38        2S          0.06736  -0.00776  -0.05162  -0.00007  -0.00559
  39        2PX        -0.01902   0.08948   0.05934  -0.00660  -0.03509
  40        2PY        -0.06232   0.00471   0.00298   0.12665  -0.03914
  41        2PZ        -0.00067   0.00100   0.00065   0.00087  -0.00064
  42        3S         -0.17874   0.01927   0.13727   0.00020   0.01613
  43        3PX        -0.02824   0.12837   0.08605  -0.00955  -0.05028
  44        3PY        -0.08927   0.00677   0.00431   0.18351  -0.06100
  45        3PZ        -0.00097   0.00143   0.00094   0.00126  -0.00095
  46        4S         -0.12408   0.03803   0.16494   0.00024   0.01413
  47        4PX        -0.00853   0.06684   0.03617  -0.00487  -0.03280
  48        4PY        -0.03430   0.00352   0.00179   0.09328  -0.00352
  49        4PZ        -0.00035   0.00074   0.00039   0.00064  -0.00035
  50        5D 0        0.00386   0.00180  -0.00135   0.00000  -0.00008
  51        5D+1       -0.00002  -0.00011   0.00022  -0.00003   0.00010
  52        5D-1        0.00000   0.00002  -0.00009  -0.00006   0.00022
  53        5D+2        0.00083  -0.00665   0.01722   0.00057  -0.00277
  54        5D-2        0.00543  -0.00071   0.00182  -0.00515   0.01825
  55 4   C  1S         -0.05217  -0.00490   0.03155   0.00003  -0.01219
  56        2S         -0.08482  -0.00777   0.05162   0.00005  -0.01993
  57        2PX        -0.00977   0.04883  -0.03222  -0.10644  -0.08032
  58        2PY        -0.03980  -0.07515   0.04990  -0.06900   0.10624
  59        2PZ        -0.00040  -0.00004   0.00002  -0.00165  -0.00005
  60        3S          0.22507   0.01931  -0.13729  -0.00015   0.05751
  61        3PX        -0.01329   0.07006  -0.04673  -0.15424  -0.11668
  62        3PY        -0.05805  -0.10780   0.07236  -0.09999   0.15237
  63        3PZ        -0.00058  -0.00005   0.00002  -0.00239  -0.00008
  64        4S          0.15619   0.03812  -0.16503  -0.00017   0.05032
  65        4PX        -0.00674   0.03645  -0.01960  -0.07837  -0.06459
  66        4PY        -0.01992  -0.05607   0.03043  -0.05078   0.09865
  67        4PZ        -0.00022  -0.00003   0.00001  -0.00122   0.00007
  68        5D 0       -0.00486   0.00179   0.00136   0.00000  -0.00029
  69        5D+1        0.00013   0.00004   0.00017   0.00004   0.00007
  70        5D-1        0.00005   0.00002   0.00010  -0.00006  -0.00003
  71        5D+2        0.00308   0.00272   0.00701   0.00477   0.00553
  72        5D-2        0.00055   0.00611   0.01583  -0.00209   0.00081
  73 5   C  1S          0.01074  -0.00491  -0.03154  -0.00005  -0.00880
  74        2S          0.01746  -0.00779  -0.05161  -0.00008  -0.01439
  75        2PX         0.08382  -0.04066  -0.02715   0.11304   0.06798
  76        2PY        -0.03619  -0.07987  -0.05291  -0.05757   0.07279
  77        2PZ         0.00063  -0.00104  -0.00071   0.00078   0.00131
  78        3S         -0.04633   0.01934   0.13726   0.00022   0.04153
  79        3PX         0.12012  -0.05833  -0.03935   0.16381   0.10096
  80        3PY        -0.05158  -0.11458  -0.07672  -0.08343   0.10326
  81        3PZ         0.00091  -0.00150  -0.00103   0.00114   0.00191
  82        4S         -0.03215   0.03812   0.16498   0.00024   0.03635
  83        4PX         0.04604  -0.03036  -0.01654   0.08327   0.03964
  84        4PY        -0.02041  -0.05965  -0.03229  -0.04239   0.07518
  85        4PZ         0.00034  -0.00078  -0.00044   0.00058   0.00102
  86        5D 0        0.00100   0.00180  -0.00135   0.00000  -0.00021
  87        5D+1        0.00008  -0.00003   0.00002   0.00007   0.00018
  88        5D-1       -0.00001  -0.00011   0.00025   0.00000  -0.00002
  89        5D+2        0.00618   0.00394  -0.01018   0.00420   0.01234
  90        5D-2        0.00494  -0.00540   0.01401   0.00308   0.00632
  91 6   C  1S          0.04143  -0.00489   0.03154   0.00005   0.00342
  92        2S          0.06736  -0.00776   0.05162   0.00007   0.00559
  93        2PX         0.01902  -0.08948   0.05934  -0.00660  -0.03509
  94        2PY         0.06232  -0.00471   0.00298   0.12665  -0.03914
  95        2PZ         0.00067  -0.00100   0.00065   0.00087  -0.00064
  96        3S         -0.17874   0.01927  -0.13727  -0.00020  -0.01613
  97        3PX         0.02824  -0.12837   0.08605  -0.00955  -0.05028
  98        3PY         0.08927  -0.00677   0.00431   0.18351  -0.06100
  99        3PZ         0.00097  -0.00143   0.00094   0.00126  -0.00095
 100        4S         -0.12408   0.03803  -0.16494  -0.00024  -0.01413
 101        4PX         0.00853  -0.06684   0.03617  -0.00487  -0.03280
 102        4PY         0.03430  -0.00352   0.00179   0.09328  -0.00352
 103        4PZ         0.00035  -0.00074   0.00039   0.00064  -0.00035
 104        5D 0        0.00386   0.00180   0.00135   0.00000   0.00008
 105        5D+1       -0.00002  -0.00011  -0.00022   0.00003  -0.00010
 106        5D-1        0.00000   0.00002   0.00009   0.00006  -0.00022
 107        5D+2        0.00083  -0.00665  -0.01722  -0.00057   0.00277
 108        5D-2        0.00543  -0.00071  -0.00182   0.00515  -0.01825
 109 7   H  1S          0.06810   0.06939   0.08532   0.00018   0.09853
 110        2S          0.08727   0.08707   0.11610   0.00023   0.14000
 111        3S          0.01284   0.02031   0.04259   0.00009   0.05459
 112        4PX         0.00717   0.00539   0.00462  -0.00489   0.00542
 113        4PY        -0.00870  -0.00831  -0.00710  -0.00321  -0.00962
 114        4PZ         0.00001   0.00000   0.00000  -0.00008  -0.00001
 115 8   H  1S         -0.01405   0.06942  -0.08538  -0.00004   0.07097
 116        2S         -0.01798   0.08707  -0.11615  -0.00007   0.10081
 117        3S         -0.00265   0.02031  -0.04261  -0.00003   0.03931
 118        4PX        -0.00240  -0.00449   0.00384   0.00521  -0.00180
 119        4PY         0.00382  -0.00882   0.00756  -0.00265  -0.00799
 120        4PZ         0.00000  -0.00012   0.00010   0.00004  -0.00008
 121 9   H  1S         -0.05409   0.06938   0.08533   0.00012  -0.02750
 122        2S         -0.06932   0.08705   0.11614   0.00016  -0.03907
 123        3S         -0.01020   0.02029   0.04259   0.00007  -0.01523
 124        4PX         0.00902  -0.00989  -0.00846  -0.00032   0.00321
 125        4PY        -0.00213  -0.00052  -0.00045   0.00584  -0.00256
 126        4PZ         0.00008  -0.00011  -0.00010   0.00004   0.00002
 127 10  H  1S          0.06810   0.06939  -0.08532  -0.00018  -0.09853
 128        2S          0.08727   0.08707  -0.11610  -0.00023  -0.14000
 129        3S          0.01284   0.02031  -0.04259  -0.00009  -0.05459
 130        4PX        -0.00717  -0.00539   0.00462  -0.00489   0.00542
 131        4PY         0.00870   0.00831  -0.00710  -0.00321  -0.00962
 132        4PZ        -0.00001   0.00000   0.00000  -0.00008  -0.00001
 133 11  H  1S         -0.01405   0.06942   0.08538   0.00004  -0.07097
 134        2S         -0.01798   0.08707   0.11615   0.00006  -0.10081
 135        3S         -0.00265   0.02031   0.04261   0.00003  -0.03931
 136        4PX         0.00240   0.00449   0.00384   0.00521  -0.00180
 137        4PY        -0.00382   0.00882   0.00756  -0.00265  -0.00799
 138        4PZ         0.00000   0.00012   0.00010   0.00004  -0.00008
 139 12  H  1S         -0.05409   0.06938  -0.08533  -0.00012   0.02750
 140        2S         -0.06932   0.08705  -0.11614  -0.00016   0.03907
 141        3S         -0.01020   0.02029  -0.04259  -0.00007   0.01523
 142        4PX        -0.00902   0.00989  -0.00846  -0.00032   0.00321
 143        4PY         0.00213   0.00052  -0.00045   0.00584  -0.00256
 144        4PZ        -0.00008   0.00011  -0.00010   0.00004   0.00002
                          16        17        18        19        20
                           O         O         O         O         O
     Eigenvalues --    -0.48822  -0.43815  -0.40243  -0.40239  -0.30692
   1 1   C  1S         -0.00312  -0.00001   0.00019   0.00288   0.00000
   2        2S         -0.00510  -0.00001   0.00031   0.00483   0.00000
   3        2PX        -0.01292  -0.00103   0.09849  -0.06200  -0.00159
   4        2PY        -0.04874  -0.00074   0.07159   0.08150  -0.00110
   5        2PZ        -0.00048   0.09794   0.00157  -0.00007   0.14904
   6        3S          0.01471   0.00003  -0.00108  -0.01681  -0.00001
   7        3PX        -0.02251  -0.00165   0.13959  -0.08951  -0.00252
   8        3PY        -0.07273  -0.00118   0.10168   0.11804  -0.00174
   9        3PZ        -0.00074   0.15686   0.00222  -0.00009   0.23670
  10        4S          0.01291   0.00000   0.00066   0.01059  -0.00001
  11        4PX         0.01490  -0.00124   0.08930  -0.06914  -0.00248
  12        4PY        -0.02617  -0.00084   0.06666   0.09371  -0.00171
  13        4PZ        -0.00001   0.11434   0.00143  -0.00005   0.23206
  14        5D 0       -0.00007  -0.00001   0.00002   0.00043  -0.00003
  15        5D+1       -0.00011   0.00678   0.00007  -0.00033   0.00349
  16        5D-1        0.00021  -0.01044  -0.00017  -0.00018  -0.00754
  17        5D+2       -0.01665  -0.00015   0.01245  -0.01208  -0.00009
  18        5D-2        0.00823   0.00005  -0.00742  -0.02501   0.00005
  19 2   C  1S          0.00902   0.00000  -0.00258  -0.00128   0.00000
  20        2S          0.01475   0.00000  -0.00433  -0.00214   0.00000
  21        2PX         0.02047  -0.00108  -0.08991   0.07654  -0.00075
  22        2PY         0.09967  -0.00079  -0.05701  -0.09011  -0.00053
  23        2PZ         0.00100   0.09792  -0.00144   0.00012   0.06826
  24        3S         -0.04256  -0.00001   0.01509   0.00747  -0.00001
  25        3PX         0.02648  -0.00173  -0.12869   0.10798  -0.00118
  26        3PY         0.14507  -0.00127  -0.08318  -0.12895  -0.00084
  27        3PZ         0.00142   0.15683  -0.00208   0.00016   0.10840
  28        4S         -0.03729   0.00004  -0.00947  -0.00475  -0.00001
  29        4PX         0.03838  -0.00127  -0.09150   0.06540  -0.00116
  30        4PY         0.07828  -0.00094  -0.07043  -0.09153  -0.00084
  31        4PZ         0.00103   0.11431  -0.00157  -0.00001   0.10629
  32        5D 0        0.00022  -0.00025  -0.00040  -0.00020  -0.00031
  33        5D+1        0.00017  -0.00565   0.00010  -0.00016  -0.02097
  34        5D-1        0.00003  -0.01109  -0.00032  -0.00016   0.00646
  35        5D+2        0.00952  -0.00002   0.01983  -0.00316   0.00028
  36        5D-2        0.00966   0.00016  -0.01638  -0.01762   0.00008
  37 3   C  1S          0.01213  -0.00001   0.00240  -0.00160   0.00000
  38        2S          0.01983  -0.00001   0.00402  -0.00267   0.00000
  39        2PX         0.13233  -0.00107   0.08160  -0.06181   0.00087
  40        2PY        -0.00352  -0.00072   0.07175   0.09842   0.00062
  41        2PZ         0.00142   0.09793   0.00139   0.00006  -0.08080
  42        3S         -0.05722   0.00003  -0.01402   0.00932   0.00001
  43        3PX         0.19065  -0.00171   0.11816  -0.08927   0.00139
  44        3PY        -0.00637  -0.00115   0.10188   0.13949   0.00097
  45        3PZ         0.00203   0.15684   0.00199   0.00007  -0.12831
  46        4S         -0.05005  -0.00001   0.00883  -0.00581   0.00000
  47        4PX         0.11704  -0.00121   0.09370  -0.06919   0.00137
  48        4PY         0.00563  -0.00086   0.06660   0.08933   0.00095
  49        4PZ         0.00132   0.11434   0.00148  -0.00009  -0.12581
  50        5D 0        0.00029  -0.00024   0.00037  -0.00025   0.00033
  51        5D+1        0.00006  -0.01243   0.00021  -0.00025   0.00336
  52        5D-1        0.00004  -0.00066  -0.00025  -0.00004   0.02065
  53        5D+2        0.00241   0.00013   0.02389  -0.01402   0.00012
  54        5D-2        0.00546   0.00009  -0.00549  -0.01355  -0.00025
  55 4   C  1S          0.00312   0.00001   0.00019   0.00288   0.00000
  56        2S          0.00510   0.00001   0.00031   0.00483   0.00000
  57        2PX        -0.01292  -0.00103  -0.09849   0.06200   0.00159
  58        2PY        -0.04874  -0.00074  -0.07159  -0.08150   0.00110
  59        2PZ        -0.00048   0.09794  -0.00157   0.00006  -0.14904
  60        3S         -0.01471  -0.00003  -0.00108  -0.01681  -0.00001
  61        3PX        -0.02251  -0.00165  -0.13959   0.08951   0.00252
  62        3PY        -0.07273  -0.00118  -0.10168  -0.11804   0.00174
  63        3PZ        -0.00074   0.15686  -0.00222   0.00009  -0.23670
  64        4S         -0.01291   0.00000   0.00066   0.01059  -0.00001
  65        4PX         0.01490  -0.00124  -0.08930   0.06914   0.00248
  66        4PY        -0.02617  -0.00084  -0.06666  -0.09371   0.00171
  67        4PZ        -0.00001   0.11434  -0.00143   0.00005  -0.23206
  68        5D 0        0.00007   0.00001   0.00002   0.00043  -0.00003
  69        5D+1        0.00011  -0.00678   0.00007  -0.00033   0.00349
  70        5D-1       -0.00021   0.01044  -0.00017  -0.00018  -0.00754
  71        5D+2        0.01665   0.00015   0.01245  -0.01208  -0.00009
  72        5D-2       -0.00823  -0.00006  -0.00742  -0.02501   0.00005
  73 5   C  1S         -0.00902   0.00000  -0.00258  -0.00128   0.00000
  74        2S         -0.01475   0.00000  -0.00433  -0.00214   0.00000
  75        2PX         0.02047  -0.00108   0.08991  -0.07654   0.00075
  76        2PY         0.09967  -0.00079   0.05701   0.09011   0.00053
  77        2PZ         0.00100   0.09792   0.00144  -0.00012  -0.06826
  78        3S          0.04256   0.00001   0.01509   0.00747  -0.00001
  79        3PX         0.02648  -0.00173   0.12869  -0.10798   0.00118
  80        3PY         0.14507  -0.00127   0.08318   0.12895   0.00084
  81        3PZ         0.00142   0.15683   0.00208  -0.00016  -0.10840
  82        4S          0.03729  -0.00004  -0.00947  -0.00475  -0.00001
  83        4PX         0.03838  -0.00127   0.09150  -0.06540   0.00116
  84        4PY         0.07828  -0.00094   0.07043   0.09153   0.00084
  85        4PZ         0.00103   0.11431   0.00157   0.00001  -0.10629
  86        5D 0       -0.00022   0.00025  -0.00040  -0.00020  -0.00031
  87        5D+1       -0.00017   0.00565   0.00010  -0.00016  -0.02097
  88        5D-1       -0.00003   0.01109  -0.00032  -0.00016   0.00646
  89        5D+2       -0.00952   0.00002   0.01983  -0.00316   0.00028
  90        5D-2       -0.00966  -0.00016  -0.01638  -0.01762   0.00008
  91 6   C  1S         -0.01213   0.00001   0.00240  -0.00160   0.00000
  92        2S         -0.01983   0.00001   0.00402  -0.00267   0.00000
  93        2PX         0.13233  -0.00107  -0.08160   0.06181  -0.00087
  94        2PY        -0.00352  -0.00072  -0.07175  -0.09842  -0.00062
  95        2PZ         0.00142   0.09793  -0.00139  -0.00006   0.08080
  96        3S          0.05722  -0.00003  -0.01402   0.00932   0.00001
  97        3PX         0.19065  -0.00171  -0.11816   0.08927  -0.00138
  98        3PY        -0.00637  -0.00115  -0.10188  -0.13949  -0.00097
  99        3PZ         0.00203   0.15684  -0.00199  -0.00007   0.12831
 100        4S          0.05005   0.00001   0.00883  -0.00581   0.00000
 101        4PX         0.11704  -0.00121  -0.09370   0.06919  -0.00137
 102        4PY         0.00563  -0.00086  -0.06660  -0.08933  -0.00095
 103        4PZ         0.00132   0.11434  -0.00148   0.00009   0.12581
 104        5D 0       -0.00029   0.00024   0.00037  -0.00025   0.00033
 105        5D+1       -0.00006   0.01243   0.00021  -0.00025   0.00336
 106        5D-1       -0.00004   0.00066  -0.00025  -0.00004   0.02065
 107        5D+2       -0.00241  -0.00013   0.02389  -0.01402   0.00012
 108        5D-2       -0.00546  -0.00009  -0.00549  -0.01355  -0.00025
 109 7   H  1S         -0.02507  -0.00001   0.00624   0.10060   0.00001
 110        2S         -0.03562  -0.00002   0.00914   0.14727   0.00001
 111        3S         -0.01389  -0.00001   0.00519   0.08358   0.00001
 112        4PX        -0.00382  -0.00007   0.00580   0.00303  -0.00012
 113        4PY         0.00086  -0.00004   0.00331  -0.00543  -0.00008
 114        4PZ        -0.00003   0.00622   0.00009  -0.00001   0.01085
 115 8   H  1S          0.07276  -0.00004  -0.09025  -0.04487  -0.00001
 116        2S          0.10333  -0.00007  -0.13207  -0.06568  -0.00001
 117        3S          0.04029  -0.00003  -0.07496  -0.03728  -0.00001
 118        4PX        -0.00545  -0.00007  -0.00012   0.00658  -0.00006
 119        4PY        -0.00634  -0.00005   0.00631  -0.00025  -0.00004
 120        4PZ        -0.00011   0.00623   0.00004   0.00007   0.00498
 121 9   H  1S          0.09787  -0.00001   0.08399  -0.05571   0.00001
 122        2S          0.13906  -0.00001   0.12296  -0.08157   0.00001
 123        3S          0.05421  -0.00001   0.06976  -0.04627   0.00001
 124        4PX        -0.01089  -0.00007  -0.00537   0.00315   0.00006
 125        4PY        -0.00134  -0.00005   0.00342   0.00574   0.00004
 126        4PZ        -0.00013   0.00622  -0.00003   0.00008  -0.00589
 127 10  H  1S          0.02507   0.00001   0.00624   0.10060   0.00001
 128        2S          0.03562   0.00002   0.00914   0.14727   0.00001
 129        3S          0.01389   0.00001   0.00519   0.08358   0.00001
 130        4PX        -0.00382  -0.00007  -0.00580  -0.00303   0.00012
 131        4PY         0.00086  -0.00004  -0.00331   0.00543   0.00008
 132        4PZ        -0.00003   0.00622  -0.00009   0.00001  -0.01085
 133 11  H  1S         -0.07276   0.00004  -0.09025  -0.04487  -0.00001
 134        2S         -0.10333   0.00007  -0.13207  -0.06568  -0.00001
 135        3S         -0.04029   0.00003  -0.07496  -0.03728  -0.00001
 136        4PX        -0.00545  -0.00007   0.00012  -0.00658   0.00006
 137        4PY        -0.00634  -0.00005  -0.00631   0.00025   0.00004
 138        4PZ        -0.00011   0.00623  -0.00004  -0.00007  -0.00498
 139 12  H  1S         -0.09787   0.00001   0.08399  -0.05571   0.00001
 140        2S         -0.13906   0.00001   0.12296  -0.08157   0.00001
 141        3S         -0.05421   0.00001   0.06976  -0.04627   0.00001
 142        4PX        -0.01089  -0.00007   0.00537  -0.00315  -0.00006
 143        4PY        -0.00134  -0.00005  -0.00342  -0.00574  -0.00004
 144        4PZ        -0.00013   0.00622   0.00003  -0.00008   0.00589
                          21        22        23        24        25
                           O         V         V         V         V
     Eigenvalues --    -0.30685   0.02773   0.02779   0.07771   0.11166
   1 1   C  1S          0.00000   0.00000   0.00000   0.01670   0.01347
   2        2S          0.00000  -0.00001   0.00001   0.02626   0.02152
   3        2PX        -0.00006   0.00016  -0.00171   0.02454   0.04002
   4        2PY        -0.00003   0.00011  -0.00119  -0.03775  -0.06624
   5        2PZ         0.00723  -0.01521   0.15968  -0.00003  -0.00006
   6        3S          0.00000   0.00004  -0.00002  -0.05047  -0.03732
   7        3PX        -0.00010   0.00024  -0.00249   0.02316   0.03268
   8        3PY        -0.00005   0.00016  -0.00173  -0.03561  -0.03755
   9        3PZ         0.01149  -0.02209   0.23194  -0.00003   0.00007
  10        4S          0.00000  -0.00029   0.00007  -0.51321  -0.72112
  11        4PX        -0.00010   0.00040  -0.00571   0.12830   0.29582
  12        4PY        -0.00004   0.00055  -0.00408  -0.19729  -0.40752
  13        4PZ         0.01128  -0.05137   0.53954  -0.00012   0.00015
  14        5D 0        0.00055   0.00081   0.00008  -0.00336  -0.00127
  15        5D+1        0.02058   0.03044  -0.00364  -0.00017  -0.00012
  16        5D-1        0.01290   0.01843   0.01182  -0.00010  -0.00018
  17        5D+2       -0.00012  -0.00019   0.00013  -0.00825  -0.00019
  18        5D-2       -0.00030  -0.00043  -0.00010  -0.01858  -0.01841
  19 2   C  1S          0.00000   0.00001   0.00000   0.01670   0.01234
  20        2S          0.00001   0.00001  -0.00001   0.02626   0.01972
  21        2PX        -0.00144  -0.00158   0.00072  -0.02044  -0.02920
  22        2PY        -0.00103  -0.00111   0.00051  -0.04011  -0.06467
  23        2PZ         0.13269   0.14590  -0.06666  -0.00052  -0.00081
  24        3S         -0.00002  -0.00004   0.00002  -0.05045  -0.03418
  25        3PX        -0.00229  -0.00230   0.00104  -0.01926  -0.02849
  26        3PY        -0.00164  -0.00162   0.00075  -0.03782  -0.03615
  27        3PZ         0.21074   0.21192  -0.09683  -0.00049  -0.00059
  28        4S         -0.00002   0.00027  -0.00011  -0.51327  -0.66042
  29        4PX        -0.00225  -0.00544   0.00247  -0.10687  -0.23944
  30        4PY        -0.00164  -0.00398   0.00180  -0.20967  -0.39556
  31        4PZ         0.20664   0.49284  -0.22527  -0.00278  -0.00566
  32        5D 0       -0.00003   0.00005  -0.00045  -0.00335  -0.00116
  33        5D+1        0.00659  -0.00830  -0.03121   0.00006   0.00014
  34        5D-1       -0.01156   0.01643   0.01032   0.00031   0.00022
  35        5D+2       -0.00015   0.00021   0.00041  -0.01196  -0.00142
  36        5D-2        0.00007  -0.00011   0.00012   0.01645   0.01810
  37 3   C  1S          0.00000  -0.00001   0.00000   0.01670  -0.00113
  38        2S          0.00000  -0.00001   0.00000   0.02626  -0.00180
  39        2PX        -0.00133   0.00140   0.00100  -0.04495   0.00679
  40        2PY        -0.00090   0.00097   0.00069  -0.00238  -0.00553
  41        2PZ         0.12545  -0.13069  -0.09301  -0.00051   0.00004
  42        3S          0.00000   0.00004  -0.00001  -0.05045   0.00311
  43        3PX        -0.00213   0.00204   0.00146  -0.04240   0.00330
  44        3PY        -0.00144   0.00141   0.00101  -0.00224   0.01613
  45        3PZ         0.19924  -0.18980  -0.13509  -0.00049   0.00016
  46        4S         -0.00004  -0.00026   0.00014  -0.51304   0.06018
  47        4PX        -0.00205   0.00496   0.00328  -0.23480   0.03903
  48        4PY        -0.00142   0.00325   0.00236  -0.01242   0.06185
  49        4PZ         0.19541  -0.44146  -0.31434  -0.00263   0.00092
  50        5D 0        0.00002   0.00006  -0.00048  -0.00335   0.00011
  51        5D+1       -0.00760  -0.01082  -0.00538   0.00030  -0.00012
  52        5D-1        0.01278   0.02018  -0.02943  -0.00008  -0.00018
  53        5D+2        0.00018   0.00027  -0.00016   0.02023   0.00036
  54        5D-2       -0.00008  -0.00014   0.00036   0.00213  -0.01685
  55 4   C  1S          0.00000   0.00000   0.00000   0.01670  -0.01347
  56        2S          0.00000   0.00001  -0.00001   0.02626  -0.02152
  57        2PX         0.00006   0.00016  -0.00171  -0.02454   0.04002
  58        2PY         0.00003   0.00011  -0.00119   0.03775  -0.06624
  59        2PZ        -0.00723  -0.01521   0.15968   0.00003  -0.00006
  60        3S          0.00000  -0.00004   0.00002  -0.05047   0.03732
  61        3PX         0.00010   0.00024  -0.00249  -0.02316   0.03268
  62        3PY         0.00005   0.00016  -0.00173   0.03561  -0.03755
  63        3PZ        -0.01149  -0.02209   0.23194   0.00003   0.00007
  64        4S          0.00000   0.00029  -0.00007  -0.51321   0.72112
  65        4PX         0.00010   0.00040  -0.00571  -0.12830   0.29582
  66        4PY         0.00004   0.00055  -0.00408   0.19729  -0.40752
  67        4PZ        -0.01128  -0.05137   0.53954   0.00012   0.00015
  68        5D 0        0.00055  -0.00081  -0.00008  -0.00336   0.00127
  69        5D+1        0.02058  -0.03044   0.00364  -0.00017   0.00012
  70        5D-1        0.01290  -0.01843  -0.01182  -0.00010   0.00018
  71        5D+2       -0.00012   0.00019  -0.00013  -0.00825   0.00019
  72        5D-2       -0.00030   0.00043   0.00010  -0.01858   0.01841
  73 5   C  1S          0.00000  -0.00001   0.00000   0.01670  -0.01234
  74        2S          0.00001  -0.00001   0.00001   0.02626  -0.01972
  75        2PX         0.00144  -0.00158   0.00072   0.02044  -0.02920
  76        2PY         0.00103  -0.00111   0.00051   0.04011  -0.06467
  77        2PZ        -0.13269   0.14590  -0.06666   0.00053  -0.00081
  78        3S         -0.00002   0.00004  -0.00002  -0.05045   0.03418
  79        3PX         0.00229  -0.00230   0.00104   0.01926  -0.02849
  80        3PY         0.00164  -0.00162   0.00075   0.03782  -0.03615
  81        3PZ        -0.21074   0.21192  -0.09683   0.00049  -0.00059
  82        4S         -0.00002  -0.00027   0.00011  -0.51327   0.66041
  83        4PX         0.00225  -0.00544   0.00247   0.10687  -0.23944
  84        4PY         0.00164  -0.00398   0.00180   0.20968  -0.39556
  85        4PZ        -0.20664   0.49284  -0.22527   0.00278  -0.00566
  86        5D 0       -0.00003  -0.00005   0.00045  -0.00335   0.00116
  87        5D+1        0.00659   0.00830   0.03121   0.00006  -0.00014
  88        5D-1       -0.01156  -0.01643  -0.01032   0.00031  -0.00022
  89        5D+2       -0.00015  -0.00021  -0.00041  -0.01196   0.00142
  90        5D-2        0.00007   0.00011  -0.00012   0.01645  -0.01810
  91 6   C  1S          0.00000   0.00001   0.00000   0.01670   0.00113
  92        2S          0.00000   0.00001   0.00000   0.02626   0.00180
  93        2PX         0.00133   0.00140   0.00100   0.04495   0.00679
  94        2PY         0.00090   0.00097   0.00069   0.00238  -0.00553
  95        2PZ        -0.12545  -0.13069  -0.09301   0.00051   0.00004
  96        3S          0.00000  -0.00004   0.00001  -0.05045  -0.00311
  97        3PX         0.00213   0.00204   0.00146   0.04240   0.00330
  98        3PY         0.00144   0.00141   0.00101   0.00224   0.01613
  99        3PZ        -0.19924  -0.18980  -0.13509   0.00049   0.00016
 100        4S         -0.00004   0.00026  -0.00014  -0.51304  -0.06018
 101        4PX         0.00205   0.00496   0.00328   0.23480   0.03904
 102        4PY         0.00142   0.00325   0.00236   0.01242   0.06185
 103        4PZ        -0.19541  -0.44146  -0.31434   0.00263   0.00092
 104        5D 0        0.00002  -0.00006   0.00048  -0.00335  -0.00011
 105        5D+1       -0.00760   0.01082   0.00538   0.00030   0.00012
 106        5D-1        0.01278  -0.02018   0.02943  -0.00008   0.00018
 107        5D+2        0.00018  -0.00027   0.00016   0.02023  -0.00036
 108        5D-2       -0.00008   0.00014  -0.00036   0.00213   0.01685
 109 7   H  1S          0.00002   0.00000   0.00000   0.02131   0.00582
 110        2S          0.00002  -0.00002   0.00002   0.00814  -0.02516
 111        3S          0.00001  -0.00007   0.00005   0.69069   1.08496
 112        4PX         0.00000   0.00002  -0.00018  -0.00843  -0.01104
 113        4PY         0.00000   0.00001  -0.00012   0.01297   0.01870
 114        4PZ         0.00053  -0.00156   0.01642   0.00001   0.00002
 115 8   H  1S         -0.00002   0.00002  -0.00001   0.02132   0.00533
 116        2S         -0.00002   0.00008  -0.00003   0.00810  -0.02308
 117        3S         -0.00002   0.00013  -0.00005   0.69085   0.99447
 118        4PX        -0.00011  -0.00017   0.00007   0.00702   0.00796
 119        4PY        -0.00008  -0.00012   0.00005   0.01379   0.01827
 120        4PZ         0.00967   0.01502  -0.00687   0.00018   0.00023
 121 9   H  1S          0.00002   0.00000  -0.00001   0.02131  -0.00050
 122        2S          0.00002  -0.00003   0.00001   0.00809   0.00208
 123        3S          0.00001  -0.00008   0.00001   0.69053  -0.09096
 124        4PX        -0.00010   0.00015   0.00010   0.01545  -0.00192
 125        4PY        -0.00007   0.00010   0.00007   0.00081   0.00203
 126        4PZ         0.00914  -0.01345  -0.00957   0.00017   0.00000
 127 10  H  1S          0.00002   0.00000   0.00000   0.02131  -0.00582
 128        2S          0.00002   0.00001  -0.00002   0.00814   0.02516
 129        3S          0.00001   0.00007  -0.00005   0.69069  -1.08496
 130        4PX         0.00000   0.00002  -0.00018   0.00843  -0.01104
 131        4PY         0.00000   0.00001  -0.00012  -0.01297   0.01870
 132        4PZ        -0.00053  -0.00156   0.01642  -0.00001   0.00002
 133 11  H  1S         -0.00002  -0.00002   0.00001   0.02132  -0.00533
 134        2S         -0.00002  -0.00008   0.00003   0.00810   0.02308
 135        3S         -0.00002  -0.00013   0.00005   0.69085  -0.99447
 136        4PX         0.00011  -0.00017   0.00007  -0.00702   0.00796
 137        4PY         0.00008  -0.00012   0.00005  -0.01379   0.01827
 138        4PZ        -0.00967   0.01502  -0.00687  -0.00018   0.00023
 139 12  H  1S          0.00002   0.00000   0.00001   0.02131   0.00050
 140        2S          0.00002   0.00003  -0.00001   0.00809  -0.00208
 141        3S          0.00001   0.00008  -0.00001   0.69053   0.09097
 142        4PX         0.00010   0.00015   0.00010  -0.01545  -0.00192
 143        4PY         0.00007   0.00010   0.00007  -0.00081   0.00203
 144        4PZ        -0.00914  -0.01345  -0.00957  -0.00017   0.00000
                          26        27        28        29        30
                           V         V         V         V         V
     Eigenvalues --     0.11167   0.14551   0.14554   0.17043   0.20265
   1 1   C  1S         -0.00648  -0.01563  -0.02370  -0.02137   0.00000
   2        2S         -0.01036  -0.02619  -0.03971  -0.03758   0.00000
   3        2PX        -0.02471   0.00208  -0.03670  -0.01735  -0.00136
   4        2PY         0.02829   0.03690   0.03005   0.02673  -0.00095
   5        2PZ        -0.00005   0.00029  -0.00016   0.00002   0.12627
   6        3S          0.01798   0.06300   0.09550   0.15565   0.00000
   7        3PX        -0.00083   0.00761  -0.01213  -0.01644  -0.00193
   8        3PY         0.02773   0.01213   0.00298   0.02533  -0.00135
   9        3PZ         0.00020   0.00015  -0.00010   0.00001   0.17923
  10        4S          0.34607   0.52649   0.79910  -1.59300  -0.00001
  11        4PX        -0.08668  -0.07669  -0.47895  -1.03902  -0.00723
  12        4PY         0.23247   0.48266   0.49628   1.59793  -0.00509
  13        4PZ         0.00085   0.00282  -0.00142   0.00081   0.68263
  14        5D 0        0.00061   0.00295   0.00446   0.01583   0.00001
  15        5D+1        0.00018  -0.00008  -0.00007  -0.00041  -0.00957
  16        5D-1       -0.00012   0.00000  -0.00008  -0.00027   0.01473
  17        5D+2        0.01717  -0.00304   0.00187  -0.00398   0.00021
  18        5D-2        0.00125   0.00117  -0.00110  -0.00895  -0.00008
  19 2   C  1S          0.00843   0.02835  -0.00169   0.02137   0.00000
  20        2S          0.01348   0.04749  -0.00283   0.03758  -0.00001
  21        2PX        -0.02629  -0.02315   0.02473  -0.01447   0.00136
  22        2PY        -0.04092  -0.04885  -0.00901  -0.02836   0.00096
  23        2PZ        -0.00060  -0.00062   0.00020  -0.00040  -0.12626
  24        3S         -0.02338  -0.11419   0.00682  -0.15566   0.00003
  25        3PX        -0.00222  -0.00410   0.01410  -0.01372   0.00194
  26        3PY        -0.03345  -0.01010  -0.00650  -0.02683   0.00137
  27        3PZ        -0.00028  -0.00012   0.00010  -0.00038  -0.17921
  28        4S         -0.45096  -0.95519   0.05670   1.59247  -0.00015
  29        4PX        -0.09907  -0.35498   0.23356  -0.86510   0.00739
  30        4PY        -0.30321  -0.72784  -0.06505  -1.69787   0.00522
  31        4PZ        -0.00342  -0.00942   0.00202  -0.02223  -0.68250
  32        5D 0       -0.00080  -0.00534   0.00033  -0.01584  -0.00035
  33        5D+1       -0.00017   0.00010   0.00004   0.00030  -0.00797
  34        5D-1        0.00015   0.00007   0.00000   0.00007  -0.01565
  35        5D+2       -0.01746   0.00037   0.00314   0.00578  -0.00003
  36        5D-2        0.00036  -0.00012   0.00231  -0.00793   0.00023
  37 3   C  1S          0.01489  -0.01272   0.02539  -0.02137   0.00000
  38        2S          0.02380  -0.02130   0.04254  -0.03759   0.00000
  39        2PX        -0.08543   0.02297  -0.04895   0.03183  -0.00136
  40        2PY        -0.00494   0.02465   0.00915   0.00168  -0.00095
  41        2PZ        -0.00095   0.00042  -0.00046   0.00036   0.12626
  42        3S         -0.04126   0.05124  -0.10229   0.15565   0.00001
  43        3PX        -0.05450   0.00415  -0.01009   0.03010  -0.00193
  44        3PY        -0.00165   0.01415   0.00644   0.00162  -0.00135
  45        3PZ        -0.00060   0.00013  -0.00006   0.00034   0.17919
  46        4S         -0.79767   0.42862  -0.85595  -1.59154   0.00008
  47        4PX        -0.55581   0.35152  -0.72970   1.90307  -0.00738
  48        4PY        -0.02461   0.23156   0.06843   0.10023  -0.00507
  49        4PZ        -0.00615   0.00554  -0.00732   0.02120   0.68255
  50        5D 0       -0.00140   0.00240  -0.00478   0.01583   0.00034
  51        5D+1        0.00023  -0.00002   0.00010  -0.00018   0.01754
  52        5D-1       -0.00011   0.00001   0.00008  -0.00027   0.00092
  53        5D+2        0.01872  -0.00024  -0.00044   0.00975  -0.00019
  54        5D-2        0.00070   0.00349   0.00170   0.00104  -0.00014
  55 4   C  1S          0.00648  -0.01563  -0.02370   0.02137   0.00000
  56        2S          0.01036  -0.02619  -0.03971   0.03758   0.00000
  57        2PX        -0.02471  -0.00208   0.03670  -0.01735   0.00136
  58        2PY         0.02829  -0.03690  -0.03005   0.02673   0.00095
  59        2PZ        -0.00005  -0.00029   0.00016   0.00002  -0.12627
  60        3S         -0.01798   0.06300   0.09550  -0.15565   0.00000
  61        3PX        -0.00083  -0.00761   0.01213  -0.01644   0.00193
  62        3PY         0.02773  -0.01213  -0.00298   0.02533   0.00135
  63        3PZ         0.00020  -0.00015   0.00010   0.00001  -0.17923
  64        4S         -0.34607   0.52650   0.79910   1.59301  -0.00001
  65        4PX        -0.08668   0.07669   0.47895  -1.03902   0.00723
  66        4PY         0.23247  -0.48266  -0.49628   1.59793   0.00509
  67        4PZ         0.00085  -0.00282   0.00142   0.00081  -0.68263
  68        5D 0       -0.00061   0.00295   0.00446  -0.01583   0.00001
  69        5D+1       -0.00018  -0.00008  -0.00007   0.00041  -0.00957
  70        5D-1        0.00012   0.00000  -0.00008   0.00027   0.01473
  71        5D+2       -0.01717  -0.00304   0.00187   0.00398   0.00021
  72        5D-2       -0.00125   0.00117  -0.00110   0.00895  -0.00008
  73 5   C  1S         -0.00843   0.02835  -0.00169  -0.02137   0.00000
  74        2S         -0.01348   0.04749  -0.00283  -0.03758  -0.00001
  75        2PX        -0.02629   0.02315  -0.02473  -0.01447  -0.00136
  76        2PY        -0.04092   0.04885   0.00902  -0.02836  -0.00096
  77        2PZ        -0.00060   0.00062  -0.00020  -0.00040   0.12626
[...]
 Atom     7 has atomic number  1 and mass   1.00783
 Atom     8 has atomic number  1 and mass   1.00783
 Atom     9 has atomic number  1 and mass   1.00783
 Atom    10 has atomic number  1 and mass   1.00783
 Atom    11 has atomic number  1 and mass   1.00783
 Atom    12 has atomic number  1 and mass   1.00783
 Molecular mass:    78.04695 amu.
 Principal axes and moments of inertia in atomic units:
                           1         2         3
     Eigenvalues --   314.75796 314.84579 629.60374
           X           -0.45896   0.88839  -0.01072
           Y            0.88845   0.45891  -0.00745
           Z            0.00170   0.01295   0.99991
 This molecule is an asymmetric top.
 Rotational symmetry number  1.
 Rotational temperatures (Kelvin)      0.27518     0.27510     0.13757
 Rotational constants (GHZ):           5.73374     5.73214     2.86647
 Zero-point vibrational energy     265384.7 (Joules/Mol)
                                   63.42846 (Kcal/Mol)
 Warning -- explicit consideration of   4 degrees of freedom as
           vibrations may cause significant error
 Vibrational temperatures:    589.86   595.67   890.47   891.61  1002.05
          (Kelvin)           1044.00  1257.27  1275.28  1439.68  1454.86
                             1461.99  1490.42  1491.18  1544.76  1546.68
                             1681.24  1725.56  1730.46  1927.35  1980.54
                             2193.11  2195.27  2410.90  2417.76  4569.37
                             4575.74  4596.64  4603.08  4623.82  4630.21
 
 Zero-point correction=                           0.101080 (Hartree/Particle)
 Thermal correction to Energy=                    0.105450
 Thermal correction to Enthalpy=                  0.106394
 Thermal correction to Gibbs Free Energy=         0.073631
 Sum of electronic and zero-point Energies=           -232.095078
 Sum of electronic and thermal Energies=              -232.090707
 Sum of electronic and thermal Enthalpies=            -232.089763
 Sum of electronic and thermal Free Energies=         -232.122526
 
                     E (Thermal)             CV                S
                      KCal/Mol        Cal/Mol-Kelvin    Cal/Mol-Kelvin
 Total                   66.171             16.987             68.956
 Electronic               0.000              0.000              0.000
 Translational            0.889              2.981             38.979
 Rotational               0.889              2.981             25.637
 Vibrational             64.393             11.025              4.339
 Vibration     1          0.774              1.449              0.927
 Vibration     2          0.778              1.440              0.913
 Vibration     3          0.979              0.992              0.418
 Vibration     4          0.980              0.990              0.417
                       Q            Log10(Q)             Ln(Q)
 Total Bot       0.135548D-33        -33.867906        -77.983735
 Total V=0       0.422106D+13         12.625421         29.071107
 Vib (Bot)       0.559355D-46        -46.252312       -106.499885
 Vib (Bot)    1  0.431558D+00         -0.364960         -0.840353
 Vib (Bot)    2  0.426047D+00         -0.370542         -0.853205
 Vib (Bot)    3  0.236559D+00         -0.626061         -1.441558
 Vib (Bot)    4  0.236062D+00         -0.626973         -1.443659
 Vib (V=0)       0.174187D+01          0.241015          0.554957
 Vib (V=0)    1  0.116049D+01          0.064640          0.148839
 Vib (V=0)    2  0.115690D+01          0.063295          0.145743
 Vib (V=0)    3  0.105314D+01          0.022485          0.051773
 Vib (V=0)    4  0.105292D+01          0.022397          0.051572
 Electronic      0.100000D+01          0.000000          0.000000
 Translational   0.271012D+08          7.432989         17.115090
 Rotational      0.894164D+05          4.951417         11.401060
 -------------------------------------------------------------------
 Center     Atomic                   Forces (Hartrees/Bohr)
 Number     Number              X              Y              Z
 -------------------------------------------------------------------
      1        6          -0.000093416    0.000113162    0.000001523
      2        6           0.000050743    0.000134322   -0.000000858
      3        6           0.000133875    0.000028182   -0.000000424
      4        6           0.000093442   -0.000113194   -0.000001537
      5        6          -0.000050774   -0.000134364    0.000000862
      6        6          -0.000133878   -0.000028117    0.000000411
      7        1          -0.000028126    0.000014125   -0.000001255
      8        1          -0.000000305    0.000028163   -0.000001740
      9        1           0.000025577    0.000019280   -0.000001940
     10        1           0.000028157   -0.000014130    0.000001265
     11        1           0.000000282   -0.000028164    0.000001745
     12        1          -0.000025577   -0.000019264    0.000001949
 -------------------------------------------------------------------
 Cartesian Forces:  Max     0.000134364 RMS     0.000059489

 GradGradGradGradGradGradGradGradGradGradGradGradGradGradGradGradGradGrad
 Berny optimization.
 Search for a local minimum.
 Step number   1 out of a maximum of    2
 All quantities printed in internal units (Hartrees-Bohrs-Radians)
 Second derivative matrix not updated -- analytic derivatives used.
 ITU=  0
     Eigenvalues ---    0.01441   0.01488   0.02905   0.03295   0.04997
     Eigenvalues ---    0.05036   0.05341   0.06338   0.06375   0.07959
     Eigenvalues ---    0.08107   0.10332   0.10353   0.18203   0.18914
     Eigenvalues ---    0.19649   0.20220   0.20391   0.29696   0.39440
     Eigenvalues ---    0.39692   0.68502   0.68871   0.79433   0.95613
     Eigenvalues ---    1.05459   1.13335   1.13758   1.33211   1.33633
 Angle between quadratic step and forces=  41.00 degrees.
 Linear search not attempted -- first point.
 Variable       Old X    -DE/DX   Delta X   Delta X   Delta X     New X
                                 (Linear)    (Quad)   (Total)
    X1       -1.41610  -0.00009   0.00000  -0.00017  -0.00017  -1.41627
    Y1        2.21624   0.00011   0.00000   0.00029   0.00029   2.21653
    Z1        0.03267   0.00000   0.00000   0.00001   0.00001   0.03267
    X2        1.20834   0.00005   0.00000   0.00014   0.00014   1.20848
    Y2        2.35456   0.00013   0.00000   0.00028   0.00028   2.35484
    Z2        0.06184   0.00000   0.00000   0.00001   0.00001   0.06185
    X3        2.64055   0.00013   0.00000   0.00029   0.00029   2.64084
    Y3        0.15034   0.00003   0.00000   0.00001   0.00001   0.15035
    Z3        0.06077   0.00000   0.00000   0.00000   0.00000   0.06078
    X4        1.44852   0.00009   0.00000   0.00017   0.00017   1.44870
    Y4       -2.19169  -0.00011   0.00000  -0.00029  -0.00029  -2.19198
    Z4        0.03062   0.00000   0.00000  -0.00001  -0.00001   0.03061
    X5       -1.17591  -0.00005   0.00000  -0.00014  -0.00014  -1.17606
    Y5       -2.33000  -0.00013   0.00000  -0.00028  -0.00028  -2.33029
    Z5        0.00145   0.00000   0.00000  -0.00001  -0.00001   0.00144
    X6       -2.60812  -0.00013   0.00000  -0.00029  -0.00029  -2.60841
    Y6       -0.12579  -0.00003   0.00000  -0.00001  -0.00001  -0.12580
    Z6        0.00251   0.00000   0.00000   0.00000   0.00000   0.00251
    X7       -2.53209  -0.00003   0.00000  -0.00024  -0.00024  -2.53233
    Y7        3.93324   0.00001   0.00000   0.00033   0.00033   3.93357
    Z7        0.03354   0.00000   0.00000  -0.00002  -0.00002   0.03352
    X8        2.13794   0.00000   0.00000   0.00022   0.00022   2.13816
    Y8        4.17886   0.00003   0.00000   0.00031   0.00031   4.17917
    Z8        0.08601   0.00000   0.00000   0.00001   0.00001   0.08602
    X9        4.68525   0.00003   0.00000   0.00035   0.00035   4.68560
    Y9        0.25785   0.00002   0.00000   0.00008   0.00008   0.25793
    Z9        0.08356   0.00000   0.00000  -0.00001  -0.00001   0.08356
   X10        2.56452   0.00003   0.00000   0.00024   0.00024   2.56476
   Y10       -3.90869  -0.00001   0.00000  -0.00033  -0.00033  -3.90902
   Z10        0.02975   0.00000   0.00000   0.00002   0.00002   0.02977
   X11       -2.10551   0.00000   0.00000  -0.00022  -0.00022  -2.10573
   Y11       -4.15431  -0.00003   0.00000  -0.00031  -0.00031  -4.15462
   Z11       -0.02273   0.00000   0.00000  -0.00001  -0.00001  -0.02273
   X12       -4.65282  -0.00003   0.00000  -0.00035  -0.00035  -4.65317
   Y12       -0.23330  -0.00002   0.00000  -0.00008  -0.00008  -0.23338
   Z12       -0.02028   0.00000   0.00000   0.00001   0.00001  -0.02027
         Item               Value     Threshold  Converged?
 Maximum Force            0.000134     0.000450     YES
 RMS     Force            0.000059     0.000300     YES
 Maximum Displacement     0.000349     0.001800     YES
 RMS     Displacement     0.000202     0.001200     YES
 Predicted change in Energy=-1.635205D-07
 Optimization completed.
    -- Stationary point found.
 GradGradGradGradGradGradGradGradGradGradGradGradGradGradGradGradGradGrad


 Test job not archived.
 1\1\GINC-LEGACY-N0\Freq\RM062X\6-311G(d,p)\C6H6\TWS35\14-Aug-2020\0\\#
 N Geom=AllCheck Guess=TCheck SCRF=Check Test GenChk RM062X/6-311G(d,p)
  Freq\\c1ccccc1\\0,1\C,-0.7493662449,1.1727839918,0.0172857736\C,0.639
 4269314,1.2459768468,0.0327230551\C,1.3973201557,0.079557531,0.0321607
 341\C,0.7665262326,-1.1597921192,0.0162038888\C,-0.6222669191,-1.23298
 49715,0.0007665389\C,-1.3801601558,-0.0665657066,0.0013289295\H,-1.339
 9239887,2.0813827018,0.0177481735\H,1.1313501963,2.2113570187,0.045515
 2874\H,2.4793272866,0.1364498497,0.0442202617\H,1.3570837607,-2.068390
 9899,0.0157412451\H,-1.1141899793,-2.1983652835,-0.0120259305\H,-2.462
 1672753,-0.1234582493,-0.0107308412\\Version=EM64L-G09RevD.01\HF=-232.
 1961573\RMSD=2.281e-09\RMSF=5.949e-05\ZeroPoint=0.1010797\Thermal=0.10
 545\Dipole=0.,0.0000008,-0.0000002\DipoleDeriv=-0.0289037,-0.077876,0.
 0005093,-0.0774184,0.0407821,0.0005252,0.0005332,0.0004756,-0.1396234,
 -0.0442013,0.0692092,0.0016461,0.0666481,0.0525215,0.0023588,0.001562,
 0.0022357,-0.1390795,0.0894301,0.0086882,0.0025119,0.0084459,-0.077951
 7,0.0003718,0.002246,0.0003848,-0.1392319,-0.028904,-0.0778759,0.00050
 92,-0.0774181,0.0407816,0.0005253,0.0005332,0.0004757,-0.1396234,-0.04
 42016,0.0692091,0.0016461,0.0666479,0.052521,0.0023589,0.001562,0.0022
 357,-0.1390795,0.0894301,0.0086882,0.0025119,0.0084457,-0.0779517,0.00
 03718,0.0022461,0.0003849,-0.1392319,0.026408,0.0696673,-0.0006913,0.0
 701322,-0.0376124,-0.0005682,-0.000697,-0.0005762,0.1393101,0.0390961,
 -0.0615465,-0.0015234,-0.060115,-0.0485468,-0.0020782,-0.0014505,-0.00
 19419,0.1392636,-0.081829,-0.0081422,-0.0024526,-0.0076927,0.0708076,-
 0.0006095,-0.0021938,-0.0005781,0.1393611,0.0264081,0.0696672,-0.00069
 13,0.0701321,-0.0376122,-0.0005682,-0.0006969,-0.0005762,0.1393101,0.0
 390963,-0.0615463,-0.0015234,-0.0601149,-0.0485466,-0.0020782,-0.00145
 05,-0.001942,0.1392636,-0.0818289,-0.0081423,-0.0024526,-0.0076928,0.0
 708076,-0.0006095,-0.0021938,-0.0005781,0.1393611\Polar=72.8880722,-0.
 0452263,72.6715432,0.4774273,0.3269392,28.306313\PG=C01 [X(C6H6)]\NIma
 g=0\\0.70663042,-0.03258551,0.73777500,0.00558720,0.00389006,0.1401424
 3,-0.34947220,0.02699455,-0.00268864,0.69558265,-0.05035351,-0.1334048
 8,-0.00104981,0.02954944,0.73600890,-0.00323908,-0.00019626,-0.0651705
 4,0.00605571,0.00456905,0.13858861,-0.03243931,0.02510036,-0.00023786,
 -0.19511001,0.13659651,-0.00038786,0.75308634,0.08468252,0.04810944,0.
 00121035,0.05897846,-0.28378865,-0.00102149,0.00475713,0.68320945,0.00
 022555,0.00058609,0.00801594,-0.00096970,-0.00017049,-0.06502208,0.006
 24874,0.00385496,0.13934489,-0.05975939,-0.03752505,-0.00085135,0.0756
 4086,-0.02271610,0.00055122,-0.17799045,-0.04936833,-0.00151659,0.7066
 3041,-0.03752505,-0.02628611,-0.00054731,0.03667553,-0.05954454,-0.000
 11781,-0.12666035,-0.30646562,-0.00296127,-0.03258538,0.73777503,-0.00
 085135,-0.00054731,-0.00793618,0.00101066,-0.00075432,0.00799266,-0.00
 206317,-0.00209271,-0.06535770,0.00558717,0.00389013,0.14014240,0.0756
 4086,0.03667552,0.00101066,-0.06729864,0.03323025,-0.00038589,-0.01907
 640,-0.09183227,-0.00098834,-0.34947227,0.02699452,-0.00268864,0.69558
 268,-0.02271611,-0.05954454,-0.00075432,0.03323025,-0.01873727,0.00028
 177,-0.03229968,0.03585381,-0.00012559,-0.05035350,-0.13340480,-0.0010
 4982,0.02954931,0.73600886,0.00055123,-0.00011781,0.00799266,-0.000385
 89,0.00028177,-0.00794217,-0.00055930,-0.00077759,0.00806641,-0.003239
 10,-0.00019627,-0.06517053,0.00605575,0.00456913,0.13858858,-0.1779904
 3,-0.12666028,-0.00206318,-0.01907640,-0.03229971,-0.00055930,-0.00190
 517,0.00441081,0.00010537,-0.03243930,0.02510033,-0.00023785,-0.195110
 05,0.13659657,-0.00038786,0.75308634,-0.04936824,-0.30646557,-0.002092
 69,-0.09183228,0.03585382,-0.00077759,0.00441080,-0.08399227,-0.000531
 59,0.08468252,0.04810941,0.00121036,0.05897854,-0.28378866,-0.00102152
 ,0.00475706,0.68320943,-0.00151660,-0.00296127,-0.06535771,-0.00098834
 ,-0.00012559,0.00806641,0.00010537,-0.00053159,-0.00791851,0.00022555,
 0.00058609,0.00801594,-0.00096970,-0.00017051,-0.06502207,0.00624881,0
 .00385497,0.13934489,-0.14341964,0.12919689,-0.00016330,-0.01105707,0.
 02793559,0.00004758,-0.00561314,-0.00150760,-0.00015188,-0.00079406,-0
 .00101593,-0.00000787,-0.00033628,-0.00330326,-0.00010940,0.01178179,-
 0.01333031,-0.00001343,0.14813571,0.12906073,-0.25971499,-0.00026231,-
 0.00312156,0.00531192,-0.00001903,-0.00096051,0.00182150,-0.00005283,-
 0.00105563,0.00009795,-0.00000550,-0.00380996,-0.00351239,-0.00012492,
 0.01781023,-0.01755152,0.00002867,-0.13885635,0.27306316,-0.00017234,-
 0.00026133,-0.03909089,-0.00017111,0.00031068,0.00356525,-0.00015065,-
 0.00005156,0.00749013,-0.00001364,-0.00000756,-0.00082626,-0.00010395,
 -0.00012270,0.00747986,0.00021772,-0.00029654,0.00355289,0.00027259,0.
 00034688,0.02716943,-0.00816598,-0.02947033,-0.00035086,-0.11673586,-0
 .11261161,-0.00169157,0.01192247,0.01656236,0.00021351,-0.00115872,0.0
 0356584,-0.00006569,-0.00099445,0.00090075,0.00000490,-0.00585208,0.00
 071621,-0.00013999,0.00090003,0.00043933,0.00005883,0.11950898,0.00178
 919,0.00260681,0.00001057,-0.11247078,-0.28009969,-0.00280365,-0.01481
 598,-0.01754990,-0.00031568,0.00409870,-0.00276224,-0.00003036,0.00092
 642,0.00033097,0.00001790,0.00017404,0.00196868,-0.00003844,-0.0003761
 6,0.00056572,0.00002973,0.12109456,0.29517442,-0.00010495,-0.00032217,
 0.00363330,-0.00169807,-0.00281385,-0.03781170,-0.00002380,0.00003222,
 0.00358047,-0.00006957,-0.00004060,0.00750452,0.00000721,0.00001454,-0
 .00082814,-0.00014020,-0.00003637,0.00751970,0.00005459,0.00004137,-0.
 00419007,0.00191784,0.00309830,0.02577079,0.00039605,0.00343693,-0.000
 04805,-0.01212281,-0.00407455,-0.00019550,-0.33959018,-0.01416035,-0.0
 0303105,-0.00946759,0.00228700,-0.00012107,0.00098021,-0.00285381,-0.0
 0009081,0.00078615,0.00009135,0.00001781,-0.00070187,-0.00023242,-0.00
 001130,0.00066669,0.00023140,0.00005138,0.35907967,0.00286565,-0.00424
 364,-0.00005653,0.02718819,0.00646403,0.00031168,-0.01423739,-0.060185
 56,-0.00026969,-0.02889275,0.00383276,-0.00031214,-0.00230826,-0.00488
 224,-0.00011966,0.00012484,-0.00142938,-0.00000413,0.00136444,0.000118
 58,0.00001529,-0.00053785,0.00080285,0.00003172,0.01537228,0.05857938,
 -0.00004725,-0.00004625,0.00750399,0.00002577,-0.00002033,0.00358973,-
 0.00302781,-0.00027918,-0.03844645,-0.00034921,0.00002441,0.00358875,-
 0.00009366,-0.00011894,0.00749210,0.00001882,-0.00001050,-0.00082569,0
 .00000182,-0.00000231,0.00014435,0.00004842,0.00003951,-0.00419753,0.0
 0337262,0.00036588,0.02645476,-0.00079406,-0.00101593,-0.00000787,-0.0
 0033628,-0.00330326,-0.00010940,0.01178178,-0.01333029,-0.00001343,-0.
 14341956,0.12919685,-0.00016326,-0.01105708,0.02793558,0.00004759,-0.0
 0561314,-0.00150760,-0.00015188,0.00006811,0.00009355,0.00001461,0.000
 40380,-0.00072972,-0.00000200,0.00063264,0.00052886,0.00005669,0.14813
 563,-0.00105563,0.00009795,-0.00000550,-0.00380996,-0.00351238,-0.0001
 2492,0.01781022,-0.01755151,0.00002866,0.12906070,-0.25971502,-0.00026
 237,-0.00312155,0.00531191,-0.00001903,-0.00096051,0.00182151,-0.00005
 283,0.00009355,-0.00001665,0.00001029,0.00088138,-0.00100025,0.0000023
 8,-0.00024879,0.00081694,0.00003731,-0.13885631,0.27306317,-0.00001364
 ,-0.00000756,-0.00082627,-0.00010395,-0.00012270,0.00747987,0.00021772
 ,-0.00029654,0.00355287,-0.00017230,-0.00026139,-0.03909086,-0.0001711
 1,0.00031068,0.00356524,-0.00015065,-0.00005156,0.00749014,0.00001461,
 0.00001029,-0.00125061,0.00000941,-0.00001665,0.00014465,0.00004983,0.
 00004347,-0.00418873,0.00027255,0.00034694,0.02716943,-0.00115872,0.00
 356584,-0.00006569,-0.00099445,0.00090075,0.00000490,-0.00585207,0.000
 71621,-0.00013999,-0.00816598,-0.02947031,-0.00035086,-0.11673578,-0.1
 1261155,-0.00169160,0.01192246,0.01656234,0.00021351,0.00040380,0.0008
 8138,0.00000941,0.00008971,-0.00008444,0.00001391,-0.00058458,-0.00145
 620,-0.00001872,0.00090003,0.00043933,0.00005883,0.11950890,0.00409870
 ,-0.00276224,-0.00003036,0.00092642,0.00033097,0.00001790,0.00017404,0
 .00196868,-0.00003844,0.00178918,0.00260680,0.00001057,-0.11247072,-0.
 28009967,-0.00280370,-0.01481596,-0.01754988,-0.00031569,-0.00072972,-
 0.00100025,-0.00001665,-0.00008444,-0.00003327,0.00000823,0.00016276,-
 0.00000411,0.00000054,-0.00037616,0.00056572,0.00002973,0.12109451,0.2
 9517439,-0.00006957,-0.00004060,0.00750453,0.00000721,0.00001454,-0.00
 082815,-0.00014020,-0.00003637,0.00751970,-0.00010495,-0.00032217,0.00
 363328,-0.00169809,-0.00281391,-0.03781168,-0.00002380,0.00003222,0.00
 358045,-0.00000200,0.00000238,0.00014465,0.00001391,0.00000823,-0.0012
 6536,-0.00000637,-0.00001576,0.00013937,0.00005459,0.00004137,-0.00419
 007,0.00191787,0.00309836,0.02577079,-0.00946759,0.00228701,-0.0001210
 7,0.00098021,-0.00285380,-0.00009081,0.00078615,0.00009135,0.00001781,
 0.00039605,0.00343693,-0.00004806,-0.01212281,-0.00407455,-0.00019550,
 -0.33959018,-0.01416040,-0.00303110,0.00063264,-0.00024879,0.00004984,
 -0.00058458,0.00016276,-0.00000637,-0.00007437,-0.00001182,0.00001251,
 -0.00070187,-0.00023242,-0.00001130,0.00066669,0.00023140,0.00005138,0
 .35907967,-0.02889275,0.00383277,-0.00031214,-0.00230826,-0.00488225,-
 0.00011966,0.00012484,-0.00142938,-0.00000413,0.00286565,-0.00424364,-
 0.00005653,0.02718819,0.00646403,0.00031168,-0.01423744,-0.06018556,-0
 .00026969,0.00052886,0.00081695,0.00004347,-0.00145620,-0.00000411,-0.
 00001576,-0.00001182,0.00013037,0.00000986,0.00136444,0.00011858,0.000
 01529,-0.00053785,0.00080285,0.00003172,0.01537233,0.05857938,-0.00034
 921,0.00002442,0.00358874,-0.00009366,-0.00011894,0.00749210,0.0000188
 2,-0.00001050,-0.00082569,-0.00004725,-0.00004625,0.00750399,0.0000257
 7,-0.00002033,0.00358973,-0.00302788,-0.00027918,-0.03844645,0.0000566
 9,0.00003731,-0.00418873,-0.00001872,0.00000054,0.00013937,0.00001251,
 0.00000986,-0.00125465,0.00000182,-0.00000231,0.00014435,0.00004842,0.
 00003951,-0.00419753,0.00337269,0.00036588,0.02645476\\0.00009342,-0.0
 0011316,-0.00000152,-0.00005074,-0.00013432,0.00000086,-0.00013388,-0.
 00002818,0.00000042,-0.00009344,0.00011319,0.00000154,0.00005077,0.000
 13436,-0.00000086,0.00013388,0.00002812,-0.00000041,0.00002813,-0.0000
 1413,0.00000126,0.00000030,-0.00002816,0.00000174,-0.00002558,-0.00001
 928,0.00000194,-0.00002816,0.00001413,-0.00000126,-0.00000028,0.000028
 16,-0.00000174,0.00002558,0.00001926,-0.00000195\\\@


 THERE ARE TWO THINGS THAT EVERYBODY THINKS THEY CAN DO BETTER THAN
 ANYONE ELSE - PUNCH THE FIRE, AND EDIT A DAILY PAPER.
 -- UNCLE ESEK, "CENTURY MAGAZINE", 1885
 Job cpu time:       0 days  0 hours  5 minutes 28.8 seconds.
 File lengths (MBytes):  RWF=     29 Int=      0 D2E=      0 Chk=      3 Scr=      1
 Normal termination of Gaussian 09 at Fri Aug 14 19:55:29 2020.
