 Entering Gaussian System, Link 0=g09
 Initial command:
 /ihome/crc/build/g09/g09-D.01/TAR/g09/l1.exe "/scratch/slurm-4550267/Gau-24028.inp" -scrdir="/scratch/slurm-4550267/"
 Entering Link 1 = /ihome/crc/build/g09/g09-D.01/TAR/g09/l1.exe PID=     24029.
  
 Copyright (c) 1988,1990,1992,1993,1995,1998,2003,2009,2013,
            Gaussian, Inc.  All Rights Reserved.
  
 This is part of the Gaussian(R) 09 program.  It is based on
 the Gaussian(R) 03 system (copyright 2003, Gaussian, Inc.),
 the Gaussian(R) 98 system (copyright 1998, Gaussian, Inc.),
 the Gaussian(R) 94 system (copyright 1995, Gaussian, Inc.),
 the Gaussian 92(TM) system (copyright 1992, Gaussian, Inc.),
 the Gaussian 90(TM) system (copyright 1990, Gaussian, Inc.),
 the Gaussian 88(TM) system (copyright 1988, Gaussian, Inc.),
 the Gaussian 86(TM) system (copyright 1986, Carnegie Mellon
 University), and the Gaussian 82(TM) system (copyright 1983,
 Carnegie Mellon University). Gaussian is a federally registered
 trademark of Gaussian, Inc.
  
 This software contains proprietary and confidential information,
 including trade secrets, belonging to Gaussian, Inc.
  
 This software is provided under written license and may be
 used, copied, transmitted, or stored only in accord with that
 written license.
  
 The following legend is applicable only to US Government
 contracts under FAR:
  
                    RESTRICTED RIGHTS LEGEND
  
 Use, reproduction and disclosure by the US Government is
 subject to restrictions as set forth in subparagraphs (a)
 and (c) of the Commercial Computer Software - Restricted
 Rights clause in FAR 52.227-19.
  
 Gaussian, Inc.
 340 Quinnipiac St., Bldg. 40, Wallingford CT 06492
  
  
 ---------------------------------------------------------------
 Warning -- This program may not be used in any manner that
 competes with the business of Gaussian, Inc. or will provide
 assistance to any competitor of Gaussian, Inc.  The licensee
 of this program is prohibited from giving any competitor of
 Gaussian, Inc. access to this program.  By using this program,
 the user acknowledges that Gaussian, Inc. is engaged in the
 business of creating and licensing software in the field of
 computational chemistry and represents and warrants to the
 licensee that it is not a competitor of Gaussian, Inc. and that
 it will not use this program in any manner prohibited above.
 ---------------------------------------------------------------
  

 Cite this work as:
 Gaussian 09, Revision D.01,
 M. J. Frisch, G. W. Trucks, H. B. Schlegel, G. E. Scuseria, 
 M. A. Robb, J. R. Cheeseman, G. Scalmani, V. Barone, B. Mennucci, 
 G. A. Petersson, H. Nakatsuji, M. Caricato, X. Li, H. P. Hratchian, 
 A. F. Izmaylov, J. Bloino, G. Zheng, J. L. Sonnenberg, M. Hada, 
 M. Ehara, K. Toyota, R. Fukuda, J. Hasegawa, M. Ishida, T. Nakajima, 
 Y. Honda, O. Kitao, H. Nakai, T. Vreven, J. A. Montgomery, Jr., 
 J. E. Peralta, F. Ogliaro, M. Bearpark, J. J. Heyd, E. Brothers, 
 K. N. Kudin, V. N. Staroverov, T. Keith, R. Kobayashi, J. Normand, 
 K. Raghavachari, A. Rendell, J. C. Burant, S. S. Iyengar, J. Tomasi, 
 M. Cossi, N. Rega, J. M. Millam, M. Klene, J. E. Knox, J. B. Cross, 
 V. Bakken, C. Adamo, J. Jaramillo, R. Gomperts, R. E. Stratmann, 
 O. Yazyev, A. J. Austin, R. Cammi, C. Pomelli, J. W. Ochterski, 
 R. L. Martin, K. Morokuma, V. G. Zakrzewski, G. A. Voth, 
 P. Salvador, J. J. Dannenberg, S. Dapprich, A. D. Daniels, 
 O. Farkas, J. B. Foresman, J. V. Ortiz, J. Cioslowski, 
 and D. J. Fox, Gaussian, Inc., Wallingford CT, 2013.
 
 ******************************************
 Gaussian 09:  EM64L-G09RevD.01 24-Apr-2013
                14-Aug-2020 
 ******************************************
 %Nproc=2
 Will use up to    2 processors via shared memory.
 %mem=6GB
 ----------------------------------------------------------------------
 #m062x/6-311g(d,p) charge pop = nbo nosymm scf=(maxcycle=999) gfinput 
 iop(6/7=3) scrf=(cpcm,solvent=water)
 ----------------------------------------------------------------------
 1/18=10,28=-2,38=1,125=101/1;
 2/12=2,15=1,17=6,18=5,40=1/2;
 3/5=4,6=6,7=101,11=2,16=1,24=10,25=1,30=1,70=2101,72=1,74=-55/1,2,3;
 4//1;
 5/5=2,7=999,38=5,53=1/2;
 6/7=3,8=2,9=2,10=2,28=1,40=1/1,7;
 99/5=1,9=1/99;
 --------
 c1ccccc1
 --------
 Symbolic Z-matrix:
 Charge =  1 Multiplicity = 2
 C                    -0.75015   1.17399   0.01728 
 C                     0.64008   1.24728   0.03274 
 C                     1.39878   0.07964   0.03217 
 C                     0.76731  -1.161     0.01622 
 C                    -0.62292  -1.23429   0.00075 
 C                    -1.38162  -0.06665   0.00132 
 H                    -1.34077   2.08274   0.01774 
 H                     1.13202   2.21283   0.04555 
 H                     2.48094   0.13647   0.04423 
 H                     1.35793  -2.06975   0.01575 
 H                    -1.11486  -2.19984  -0.01206 
 H                    -2.46378  -0.12348  -0.01074 
 
 Background charge distribution read from input stream:
                          Input orientation:                          
 ---------------------------------------------------------------------
 Center     Atomic      Atomic             Coordinates (Angstroms)
 Number     Number       Type             X           Y           Z
 ---------------------------------------------------------------------
      1          6           0       -0.750153    1.173991    0.017275
      2          6           0        0.640083    1.247278    0.032744
      3          6           0        1.398782    0.079643    0.032169
      4          6           0        0.767313   -1.160999    0.016215
      5          6           0       -0.622923   -1.234286    0.000745
      6          6           0       -1.381622   -0.066651    0.001321
      7          1           0       -1.340765    2.082736    0.017743
      8          1           0        1.132017    2.212826    0.045549
      9          1           0        2.480944    0.136473    0.044227
     10          1           0        1.357925   -2.069745    0.015747
     11          1           0       -1.114857   -2.199835   -0.012061
     12          1           0       -2.463784   -0.123481   -0.010737
 ---------------------------------------------------------------------
                    Distance matrix (angstroms):
                    1          2          3          4          5
     1  C    0.000000
     2  C    1.392252   0.000000
     3  C    2.411585   1.392478   0.000000
     4  C    2.784759   2.411692   1.392193   0.000000
     5  C    2.411692   2.784667   2.411366   1.392252   0.000000
     6  C    1.392193   2.411366   2.784421   2.411585   1.392478
     7  H    1.083808   2.149878   3.393775   3.868567   3.393850
     8  H    2.150010   1.083719   2.149840   3.393606   3.868385
     9  H    3.393694   2.150067   1.083720   2.149593   3.393355
    10  H    3.868568   3.393851   2.149839   1.083809   2.149878
    11  H    3.393607   3.868386   3.393576   2.150010   1.083719
    12  H    2.149593   3.393355   3.868141   3.393694   2.150067
                    6          7          8          9         10
     6  C    0.000000
     7  H    2.149838   0.000000
     8  H    3.393575   2.476358   0.000000
     9  H    3.868141   4.288834   2.476055   0.000000
    10  H    3.393775   4.952376   4.288629   2.475759   0.000000
    11  H    2.149841   4.288629   4.952104   4.288507   2.476358
    12  H    1.083720   2.475758   4.288506   4.951861   4.288835
                   11         12
    11  H    0.000000
    12  H    2.476056   0.000000
 Symmetry turned off by external request.
 Stoichiometry    C6H6(1+,2)
 Framework group  C1[X(C6H6)]
 Deg. of freedom    30
 Full point group                 C1      NOp   1
 Rotational constants (GHZ):      5.7227070      5.7211431      2.8609625
 Standard basis: 6-311G(d,p) (5D, 7F)
 AO basis set in the form of general basis input (Overlap normalization):
      1 0
 S   6 1.00       0.000000000000
      0.4563240000D+04  0.1966650249D-02
      0.6820240000D+03  0.1523060193D-01
      0.1549730000D+03  0.7612690966D-01
      0.4445530000D+02  0.2608010331D+00
      0.1302900000D+02  0.6164620782D+00
      0.1827730000D+01  0.2210060280D+00
 SP   3 1.00       0.000000000000
      0.2096420000D+02  0.1146600807D+00  0.4024869267D-01
      0.4803310000D+01  0.9199996477D+00  0.2375939567D+00
      0.1459330000D+01 -0.3030682134D-02  0.8158538515D+00
 SP   1 1.00       0.000000000000
      0.4834560000D+00  0.1000000000D+01  0.1000000000D+01
 SP   1 1.00       0.000000000000
      0.1455850000D+00  0.1000000000D+01  0.1000000000D+01
 D   1 1.00       0.000000000000
      0.6260000000D+00  0.1000000000D+01
 ****
      2 0
 S   6 1.00       0.000000000000
      0.4563240000D+04  0.1966650249D-02
      0.6820240000D+03  0.1523060193D-01
      0.1549730000D+03  0.7612690966D-01
      0.4445530000D+02  0.2608010331D+00
      0.1302900000D+02  0.6164620782D+00
      0.1827730000D+01  0.2210060280D+00
 SP   3 1.00       0.000000000000
      0.2096420000D+02  0.1146600807D+00  0.4024869267D-01
      0.4803310000D+01  0.9199996477D+00  0.2375939567D+00
      0.1459330000D+01 -0.3030682134D-02  0.8158538515D+00
 SP   1 1.00       0.000000000000
      0.4834560000D+00  0.1000000000D+01  0.1000000000D+01
 SP   1 1.00       0.000000000000
      0.1455850000D+00  0.1000000000D+01  0.1000000000D+01
 D   1 1.00       0.000000000000
      0.6260000000D+00  0.1000000000D+01
 ****
      3 0
 S   6 1.00       0.000000000000
      0.4563240000D+04  0.1966650249D-02
      0.6820240000D+03  0.1523060193D-01
      0.1549730000D+03  0.7612690966D-01
      0.4445530000D+02  0.2608010331D+00
      0.1302900000D+02  0.6164620782D+00
      0.1827730000D+01  0.2210060280D+00
 SP   3 1.00       0.000000000000
      0.2096420000D+02  0.1146600807D+00  0.4024869267D-01
      0.4803310000D+01  0.9199996477D+00  0.2375939567D+00
      0.1459330000D+01 -0.3030682134D-02  0.8158538515D+00
 SP   1 1.00       0.000000000000
      0.4834560000D+00  0.1000000000D+01  0.1000000000D+01
 SP   1 1.00       0.000000000000
      0.1455850000D+00  0.1000000000D+01  0.1000000000D+01
 D   1 1.00       0.000000000000
      0.6260000000D+00  0.1000000000D+01
 ****
      4 0
 S   6 1.00       0.000000000000
      0.4563240000D+04  0.1966650249D-02
      0.6820240000D+03  0.1523060193D-01
      0.1549730000D+03  0.7612690966D-01
      0.4445530000D+02  0.2608010331D+00
      0.1302900000D+02  0.6164620782D+00
      0.1827730000D+01  0.2210060280D+00
 SP   3 1.00       0.000000000000
      0.2096420000D+02  0.1146600807D+00  0.4024869267D-01
      0.4803310000D+01  0.9199996477D+00  0.2375939567D+00
      0.1459330000D+01 -0.3030682134D-02  0.8158538515D+00
 SP   1 1.00       0.000000000000
      0.4834560000D+00  0.1000000000D+01  0.1000000000D+01
 SP   1 1.00       0.000000000000
      0.1455850000D+00  0.1000000000D+01  0.1000000000D+01
 D   1 1.00       0.000000000000
      0.6260000000D+00  0.1000000000D+01
 ****
      5 0
 S   6 1.00       0.000000000000
      0.4563240000D+04  0.1966650249D-02
      0.6820240000D+03  0.1523060193D-01
      0.1549730000D+03  0.7612690966D-01
      0.4445530000D+02  0.2608010331D+00
      0.1302900000D+02  0.6164620782D+00
      0.1827730000D+01  0.2210060280D+00
 SP   3 1.00       0.000000000000
      0.2096420000D+02  0.1146600807D+00  0.4024869267D-01
      0.4803310000D+01  0.9199996477D+00  0.2375939567D+00
      0.1459330000D+01 -0.3030682134D-02  0.8158538515D+00
 SP   1 1.00       0.000000000000
      0.4834560000D+00  0.1000000000D+01  0.1000000000D+01
 SP   1 1.00       0.000000000000
      0.1455850000D+00  0.1000000000D+01  0.1000000000D+01
 D   1 1.00       0.000000000000
      0.6260000000D+00  0.1000000000D+01
 ****
      6 0
 S   6 1.00       0.000000000000
      0.4563240000D+04  0.1966650249D-02
      0.6820240000D+03  0.1523060193D-01
      0.1549730000D+03  0.7612690966D-01
      0.4445530000D+02  0.2608010331D+00
      0.1302900000D+02  0.6164620782D+00
      0.1827730000D+01  0.2210060280D+00
 SP   3 1.00       0.000000000000
      0.2096420000D+02  0.1146600807D+00  0.4024869267D-01
      0.4803310000D+01  0.9199996477D+00  0.2375939567D+00
      0.1459330000D+01 -0.3030682134D-02  0.8158538515D+00
 SP   1 1.00       0.000000000000
      0.4834560000D+00  0.1000000000D+01  0.1000000000D+01
 SP   1 1.00       0.000000000000
      0.1455850000D+00  0.1000000000D+01  0.1000000000D+01
 D   1 1.00       0.000000000000
      0.6260000000D+00  0.1000000000D+01
 ****
      7 0
 S   3 1.00       0.000000000000
      0.3386500000D+02  0.2549381454D-01
      0.5094790000D+01  0.1903731086D+00
      0.1158790000D+01  0.8521614860D+00
 S   1 1.00       0.000000000000
      0.3258400000D+00  0.1000000000D+01
 S   1 1.00       0.000000000000
      0.1027410000D+00  0.1000000000D+01
 P   1 1.00       0.000000000000
      0.7500000000D+00  0.1000000000D+01
 ****
      8 0
 S   3 1.00       0.000000000000
      0.3386500000D+02  0.2549381454D-01
      0.5094790000D+01  0.1903731086D+00
      0.1158790000D+01  0.8521614860D+00
 S   1 1.00       0.000000000000
      0.3258400000D+00  0.1000000000D+01
 S   1 1.00       0.000000000000
      0.1027410000D+00  0.1000000000D+01
 P   1 1.00       0.000000000000
      0.7500000000D+00  0.1000000000D+01
 ****
      9 0
 S   3 1.00       0.000000000000
      0.3386500000D+02  0.2549381454D-01
      0.5094790000D+01  0.1903731086D+00
      0.1158790000D+01  0.8521614860D+00
 S   1 1.00       0.000000000000
      0.3258400000D+00  0.1000000000D+01
 S   1 1.00       0.000000000000
      0.1027410000D+00  0.1000000000D+01
 P   1 1.00       0.000000000000
      0.7500000000D+00  0.1000000000D+01
 ****
     10 0
 S   3 1.00       0.000000000000
      0.3386500000D+02  0.2549381454D-01
      0.5094790000D+01  0.1903731086D+00
      0.1158790000D+01  0.8521614860D+00
 S   1 1.00       0.000000000000
      0.3258400000D+00  0.1000000000D+01
 S   1 1.00       0.000000000000
      0.1027410000D+00  0.1000000000D+01
 P   1 1.00       0.000000000000
      0.7500000000D+00  0.1000000000D+01
 ****
     11 0
 S   3 1.00       0.000000000000
      0.3386500000D+02  0.2549381454D-01
      0.5094790000D+01  0.1903731086D+00
      0.1158790000D+01  0.8521614860D+00
 S   1 1.00       0.000000000000
      0.3258400000D+00  0.1000000000D+01
 S   1 1.00       0.000000000000
      0.1027410000D+00  0.1000000000D+01
 P   1 1.00       0.000000000000
      0.7500000000D+00  0.1000000000D+01
 ****
     12 0
 S   3 1.00       0.000000000000
      0.3386500000D+02  0.2549381454D-01
      0.5094790000D+01  0.1903731086D+00
      0.1158790000D+01  0.8521614860D+00
 S   1 1.00       0.000000000000
      0.3258400000D+00  0.1000000000D+01
 S   1 1.00       0.000000000000
      0.1027410000D+00  0.1000000000D+01
 P   1 1.00       0.000000000000
      0.7500000000D+00  0.1000000000D+01
 ****

   144 basis functions,   240 primitive gaussians,   150 cartesian basis functions
    21 alpha electrons       20 beta electrons
       nuclear repulsion energy       203.8128760636 Hartrees.
 NAtoms=   12 NActive=   12 NUniq=   12 SFac= 1.00D+00 NAtFMM=   60 NAOKFM=F Big=F
 Integral buffers will be    131072 words long.
 Raffenetti 2 integral format.
 Two-electron integral symmetry is turned off.
 ------------------------------------------------------------------------------
 Polarizable Continuum Model (PCM)
 =================================
 Model                : C-PCM.
 Atomic radii         : UFF (Universal Force Field).
 Polarization charges : Total charges.
 Charge compensation  : None.
 Solution method      : On-the-fly selection.
 Cavity type          : Scaled VdW (van der Waals Surface) (Alpha=1.100).
 Cavity algorithm     : GePol (No added spheres)
                        Default sphere list used, NSphG=   12.
                        Lebedev-Laikov grids with approx.  5.0 points / Ang**2.
                        Smoothing algorithm: Karplus/York (Gamma=1.0000).
                        Polarization charges: spherical gaussians, with
                                              point-specific exponents (IZeta= 3).
                        Self-potential: point-specific (ISelfS= 7).
                        Self-field    : sphere-specific E.n sum rule (ISelfD= 2).
 Solvent              : Water, Eps=  78.355300 Eps(inf)=   1.777849
 ------------------------------------------------------------------------------
 Spheres list:
 ISph  on   Nord     Re0    Alpha      Xe            Ye            Ze
    1   C      1    1.9255  1.100     -0.750153      1.173991      0.017275
    2   C      2    1.9255  1.100      0.640083      1.247278      0.032744
    3   C      3    1.9255  1.100      1.398782      0.079643      0.032169
    4   C      4    1.9255  1.100      0.767313     -1.160999      0.016215
    5   C      5    1.9255  1.100     -0.622923     -1.234286      0.000745
    6   C      6    1.9255  1.100     -1.381622     -0.066651      0.001321
    7   H      7    1.4430  1.100     -1.340765      2.082736      0.017743
    8   H      8    1.4430  1.100      1.132017      2.212826      0.045549
    9   H      9    1.4430  1.100      2.480944      0.136473      0.044227
   10   H     10    1.4430  1.100      1.357925     -2.069745      0.015747
   11   H     11    1.4430  1.100     -1.114857     -2.199835     -0.012061
   12   H     12    1.4430  1.100     -2.463784     -0.123481     -0.010737
 ------------------------------------------------------------------------------
 One-electron integrals computed using PRISM.
 NBasis=   144 RedAO= T EigKep=  2.10D-04  NBF=   144
 NBsUse=   144 1.00D-06 EigRej= -1.00D+00 NBFU=   144
 ExpMin= 1.03D-01 ExpMax= 4.56D+03 ExpMxC= 6.82D+02 IAcc=1 IRadAn=         1 AccDes= 0.00D+00
 Harris functional with IExCor= 1009 and IRadAn=       1 diagonalized for initial guess.
 HarFok:  IExCor= 1009 AccDes= 0.00D+00 IRadAn=         1 IDoV= 1 UseB2=F ITyADJ=14
 ICtDFT=  3500011 ScaDFX=  1.000000  1.000000  1.000000  1.000000
 FoFCou: FMM=F IPFlag=           0 FMFlag=      100000 FMFlg1=           0
         NFxFlg=           0 DoJE=T BraDBF=F KetDBF=T FulRan=T
         wScrn=  0.000000 ICntrl=     500 IOpCl=  0 I1Cent=   200000004 NGrid=           0
         NMat0=    1 NMatS0=      1 NMatT0=    0 NMatD0=    1 NMtDS0=    0 NMtDT0=    0
 Symmetry not used in FoFCou.
 Initial guess <Sx>= 0.0000 <Sy>= 0.0000 <Sz>= 0.5000 <S**2>= 0.7500 S= 0.5000
 Keep R1 and R2 ints in memory in canonical form, NReq=114387623.
 Requested convergence on RMS density matrix=1.00D-08 within 999 cycles.
 Requested convergence on MAX density matrix=1.00D-06.
 Requested convergence on             energy=1.00D-06.
 No special actions if energy rises.
 Inv3:  Mode=1 IEnd=     3447552.
 Iteration    1 A*A^-1 deviation from unit magnitude is 5.11D-15 for    158.
 Iteration    1 A*A^-1 deviation from orthogonality  is 3.61D-15 for    794     72.
 Iteration    1 A^-1*A deviation from unit magnitude is 4.88D-15 for    158.
 Iteration    1 A^-1*A deviation from orthogonality  is 1.98D-15 for    806     34.
 Error on total polarization charges =  0.00518
 SCF Done:  E(UM062X) =  -231.931990813     A.U. after   22 cycles
            NFock= 22  Conv=0.32D-09     -V/T= 2.0035
 <Sx>= 0.0000 <Sy>= 0.0000 <Sz>= 0.5000 <S**2>= 0.7710 S= 0.5104
 <L.S>= 0.000000000000E+00
 Annihilation of the first spin contaminant:
 S**2 before annihilation     0.7710,   after     0.7501

 **********************************************************************

            Population analysis using the SCF density.

 **********************************************************************

 Alpha  occ. eigenvalues --  -10.64776 -10.64774 -10.61278 -10.61274 -10.61197
 Alpha  occ. eigenvalues --  -10.61196  -1.04528  -0.93426  -0.91078  -0.75928
 Alpha  occ. eigenvalues --   -0.75799  -0.66767  -0.59354  -0.59331  -0.56303
 Alpha  occ. eigenvalues --   -0.54678  -0.52139  -0.46954  -0.46904  -0.40491
 Alpha  occ. eigenvalues --   -0.37060
 Alpha virt. eigenvalues --   -0.05540  -0.03489   0.05944   0.09608   0.10010
 Alpha virt. eigenvalues --    0.12945   0.13346   0.13362   0.15942   0.25825
 Alpha virt. eigenvalues --    0.25939   0.27699   0.27795   0.30683   0.34283
 Alpha virt. eigenvalues --    0.37337   0.39036   0.40118   0.41775   0.42164
 Alpha virt. eigenvalues --    0.43173   0.44090   0.44276   0.44460   0.51969
 Alpha virt. eigenvalues --    0.52914   0.54178   0.59182   0.60078   0.60457
 Alpha virt. eigenvalues --    0.60959   0.61072   0.65449   0.67745   0.73054
 Alpha virt. eigenvalues --    0.73467   0.73558   0.74083   0.80205   0.83901
 Alpha virt. eigenvalues --    0.84422   0.84896   0.91901   0.98281   1.00272
 Alpha virt. eigenvalues --    1.00291   1.06052   1.08061   1.12428   1.13178
 Alpha virt. eigenvalues --    1.24037   1.24143   1.38895   1.42135   1.43484
 Alpha virt. eigenvalues --    1.44404   1.54031   1.54056   1.55576   1.56812
 Alpha virt. eigenvalues --    1.57136   1.62696   1.63304   1.69878   1.73277
 Alpha virt. eigenvalues --    1.73406   1.74994   1.76558   1.84268   1.87164
 Alpha virt. eigenvalues --    1.87307   1.87332   1.88555   1.88840   1.92133
 Alpha virt. eigenvalues --    1.95308   1.95586   2.03704   2.05272   2.19932
 Alpha virt. eigenvalues --    2.28121   2.28848   2.29230   2.30320   2.35062
 Alpha virt. eigenvalues --    2.35897   2.54248   2.55865   2.57009   2.57484
 Alpha virt. eigenvalues --    2.59575   2.61037   2.61948   2.63380   2.64186
 Alpha virt. eigenvalues --    2.67199   2.68089   2.71011   2.80704   2.83952
 Alpha virt. eigenvalues --    2.86875   2.87039   2.88206   3.02312   3.06074
 Alpha virt. eigenvalues --    3.30455   3.32033   3.44579   3.44915   3.46221
 Alpha virt. eigenvalues --    3.63438   3.92968   3.94742   4.05462   4.06695
 Alpha virt. eigenvalues --    4.07951   4.76823  23.52521  23.93636  23.95863
 Alpha virt. eigenvalues --   24.08300  24.10615  24.19798
  Beta  occ. eigenvalues --  -10.64562 -10.64561 -10.61281 -10.61277 -10.61197
  Beta  occ. eigenvalues --  -10.61196  -1.03360  -0.91254  -0.90950  -0.75387
  Beta  occ. eigenvalues --   -0.74835  -0.66238  -0.58916  -0.58766  -0.55671
  Beta  occ. eigenvalues --   -0.54598  -0.47415  -0.46752  -0.46640  -0.36958
  Beta virt. eigenvalues --   -0.21672  -0.01792  -0.00714   0.05977   0.09574
  Beta virt. eigenvalues --    0.10034   0.13157   0.13278   0.15437   0.16099
  Beta virt. eigenvalues --    0.26305   0.26571   0.28301   0.28352   0.31053
  Beta virt. eigenvalues --    0.34229   0.37406   0.40276   0.40660   0.42305
  Beta virt. eigenvalues --    0.42857   0.43444   0.44257   0.44622   0.44795
  Beta virt. eigenvalues --    0.52112   0.52629   0.54709   0.60079   0.60651
  Beta virt. eigenvalues --    0.60750   0.61215   0.61524   0.65546   0.68031
  Beta virt. eigenvalues --    0.72949   0.73534   0.73627   0.74200   0.80680
  Beta virt. eigenvalues --    0.84079   0.84652   0.85671   0.93095   0.99765
  Beta virt. eigenvalues --    1.00019   1.00022   1.07827   1.08256   1.13929
  Beta virt. eigenvalues --    1.14052   1.23405   1.25328   1.39697   1.43650
  Beta virt. eigenvalues --    1.43841   1.45836   1.54728   1.54811   1.55665
  Beta virt. eigenvalues --    1.57568   1.58120   1.63660   1.63891   1.70469
  Beta virt. eigenvalues --    1.73696   1.73913   1.76165   1.76744   1.84737
  Beta virt. eigenvalues --    1.88493   1.88806   1.88865   1.89676   1.90045
  Beta virt. eigenvalues --    1.92754   1.96665   1.97852   2.04891   2.05723
  Beta virt. eigenvalues --    2.20548   2.29105   2.30298   2.30399   2.30489
  Beta virt. eigenvalues --    2.36220   2.36745   2.56490   2.57590   2.57697
  Beta virt. eigenvalues --    2.57952   2.60510   2.61737   2.62120   2.63723
  Beta virt. eigenvalues --    2.64223   2.67869   2.71323   2.71854   2.83982
  Beta virt. eigenvalues --    2.84652   2.88460   2.88838   2.89033   3.04142
  Beta virt. eigenvalues --    3.06918   3.31383   3.32532   3.45471   3.46286
  Beta virt. eigenvalues --    3.46538   3.65207   3.95065   3.95279   4.06961
  Beta virt. eigenvalues --    4.08561   4.09122   4.79219  23.52858  23.94530
  Beta virt. eigenvalues --   23.96104  24.09327  24.10805  24.20402
     Alpha Molecular Orbital Coefficients:
                           1         2         3         4         5
                           O         O         O         O         O
     Eigenvalues --   -10.64776 -10.64774 -10.61278 -10.61274 -10.61197
   1 1   C  1S         -0.00446   0.00442  -0.26091   0.25971   0.30128
   2        2S         -0.00370   0.00375  -0.21450   0.21363   0.24765
   3        2PX        -0.00053   0.00046   0.00011   0.00003   0.00030
   4        2PY        -0.00016  -0.00003   0.00034  -0.00036   0.00024
   5        2PZ        -0.00001   0.00000   0.00000   0.00000   0.00000
   6        3S         -0.00003  -0.00021  -0.00621   0.00556   0.00691
   7        3PX         0.00181  -0.00141  -0.00122   0.00009  -0.00026
   8        3PY         0.00091   0.00042  -0.00081   0.00115  -0.00093
   9        3PZ         0.00003  -0.00001  -0.00002   0.00001  -0.00001
  10        4S         -0.00806   0.00108   0.00040  -0.00193  -0.00375
  11        4PX        -0.00265   0.00097   0.00042  -0.00051  -0.00130
  12        4PY         0.00377  -0.00103  -0.00047   0.00045   0.00244
  13        4PZ         0.00000   0.00000   0.00000   0.00000   0.00000
  14        5D 0       -0.00024   0.00029   0.00038  -0.00039  -0.00091
  15        5D+1        0.00001  -0.00002  -0.00001   0.00000   0.00002
  16        5D-1       -0.00001   0.00000   0.00001   0.00000   0.00002
  17        5D+2        0.00107  -0.00070  -0.00066   0.00019  -0.00019
  18        5D-2       -0.00020  -0.00029   0.00048  -0.00058   0.00043
  19 2   C  1S         -0.39815   0.39958  -0.00047  -0.00638  -0.00045
  20        2S         -0.32719   0.32846  -0.00039  -0.00509  -0.00036
  21        2PX         0.00005  -0.00006   0.00065  -0.00014  -0.00047
  22        2PY         0.00010  -0.00013  -0.00035  -0.00036   0.00021
  23        2PZ         0.00000   0.00000   0.00000   0.00000   0.00000
  24        3S         -0.00954   0.00885  -0.00002  -0.00056  -0.00004
  25        3PX         0.00013   0.00006  -0.00248   0.00062   0.00123
  26        3PY         0.00025   0.00011   0.00129   0.00143  -0.00049
  27        3PZ         0.00000   0.00000  -0.00002   0.00002   0.00001
  28        4S          0.01000  -0.00417   0.00084   0.00162   0.00007
  29        4PX        -0.00288   0.00116  -0.00004  -0.00091  -0.00033
  30        4PY        -0.00564   0.00228  -0.00052  -0.00184   0.00003
  31        4PZ        -0.00007   0.00003   0.00000  -0.00002   0.00000
  32        5D 0        0.00087  -0.00093   0.00003   0.00043   0.00003
  33        5D+1       -0.00002   0.00002   0.00002  -0.00001  -0.00001
  34        5D-1       -0.00001   0.00001   0.00000   0.00000   0.00000
  35        5D+2       -0.00003  -0.00005   0.00118  -0.00040  -0.00062
  36        5D-2        0.00004   0.00007   0.00089   0.00065  -0.00038
  37 3   C  1S         -0.00447   0.00443   0.30164   0.30254  -0.26102
  38        2S         -0.00371   0.00376   0.24798   0.24884  -0.21453
  39        2PX         0.00019  -0.00030  -0.00021  -0.00030  -0.00007
  40        2PY        -0.00052   0.00035  -0.00022  -0.00012  -0.00041
  41        2PZ         0.00000   0.00000   0.00000   0.00000   0.00000
  42        3S         -0.00003  -0.00021   0.00720   0.00655  -0.00605
  43        3PX        -0.00033   0.00117  -0.00011   0.00077   0.00073
  44        3PY         0.00200  -0.00089   0.00125   0.00062   0.00088
  45        3PZ         0.00001   0.00001   0.00001   0.00001   0.00001
  46        4S         -0.00806   0.00108  -0.00229  -0.00249   0.00354
  47        4PX         0.00461  -0.00141   0.00176   0.00108  -0.00268
  48        4PY         0.00007   0.00018   0.00002  -0.00008  -0.00040
  49        4PZ         0.00005  -0.00001   0.00002   0.00001  -0.00003
  50        5D 0       -0.00024   0.00029  -0.00050  -0.00052   0.00085
  51        5D+1       -0.00001   0.00000   0.00001   0.00001  -0.00001
  52        5D-1       -0.00001   0.00000   0.00000   0.00000  -0.00002
  53        5D+2       -0.00014   0.00049   0.00021   0.00044   0.00042
  54        5D-2       -0.00108   0.00057  -0.00067  -0.00030  -0.00037
  55 4   C  1S          0.00447   0.00441   0.26110   0.25954   0.30421
  56        2S          0.00372   0.00374   0.21466   0.21350   0.25006
  57        2PX        -0.00053  -0.00046   0.00011  -0.00003  -0.00030
  58        2PY        -0.00016   0.00003   0.00034   0.00036  -0.00025
  59        2PZ        -0.00001   0.00000   0.00000   0.00000   0.00000
  60        3S          0.00003  -0.00021   0.00622   0.00555   0.00698
  61        3PX         0.00182   0.00140  -0.00122  -0.00009   0.00027
  62        3PY         0.00091  -0.00043  -0.00081  -0.00114   0.00094
  63        3PZ         0.00003   0.00001  -0.00002  -0.00001   0.00001
  64        4S          0.00807   0.00105  -0.00040  -0.00193  -0.00388
  65        4PX        -0.00266  -0.00097   0.00042   0.00051   0.00134
  66        4PY         0.00377   0.00102  -0.00047  -0.00045  -0.00250
  67        4PZ         0.00000   0.00000   0.00000   0.00000   0.00000
  68        5D 0        0.00024   0.00029  -0.00039  -0.00039  -0.00092
  69        5D+1       -0.00001  -0.00002   0.00001   0.00000   0.00002
  70        5D-1        0.00001   0.00000  -0.00001   0.00000   0.00002
  71        5D+2       -0.00108  -0.00069   0.00066   0.00019  -0.00020
  72        5D-2        0.00020  -0.00029  -0.00048  -0.00058   0.00043
  73 5   C  1S          0.39958   0.39814   0.00047  -0.00638  -0.00051
  74        2S          0.32837   0.32728   0.00038  -0.00509  -0.00041
  75        2PX         0.00005   0.00006   0.00065   0.00014   0.00048
  76        2PY         0.00010   0.00012  -0.00035   0.00036  -0.00021
  77        2PZ         0.00000   0.00000   0.00000   0.00000   0.00000
  78        3S          0.00957   0.00882   0.00002  -0.00056  -0.00004
  79        3PX         0.00013  -0.00006  -0.00248  -0.00062  -0.00123
  80        3PY         0.00025  -0.00012   0.00129  -0.00143   0.00049
  81        3PZ         0.00000   0.00000  -0.00002  -0.00002  -0.00001
  82        4S         -0.01002  -0.00413  -0.00084   0.00162   0.00018
  83        4PX        -0.00288  -0.00115  -0.00004   0.00091   0.00036
  84        4PY        -0.00565  -0.00226  -0.00052   0.00184   0.00003
  85        4PZ        -0.00007  -0.00003   0.00000   0.00002   0.00000
  86        5D 0       -0.00087  -0.00092  -0.00003   0.00043   0.00003
  87        5D+1        0.00002   0.00002  -0.00002  -0.00001  -0.00001
  88        5D-1        0.00001   0.00001   0.00000   0.00000   0.00000
  89        5D+2        0.00003  -0.00005  -0.00118  -0.00040  -0.00062
  90        5D-2       -0.00004   0.00007  -0.00089   0.00065  -0.00038
  91 6   C  1S          0.00449   0.00442  -0.30144   0.30276  -0.25846
  92        2S          0.00372   0.00375  -0.24782   0.24902  -0.21243
  93        2PX         0.00019   0.00029  -0.00021   0.00030   0.00007
  94        2PY        -0.00052  -0.00035  -0.00022   0.00012   0.00041
  95        2PZ         0.00000   0.00000   0.00000   0.00000   0.00000
  96        3S          0.00003  -0.00021  -0.00720   0.00655  -0.00599
  97        3PX        -0.00034  -0.00117  -0.00011  -0.00077  -0.00072
  98        3PY         0.00200   0.00088   0.00125  -0.00062  -0.00087
  99        3PZ         0.00001  -0.00001   0.00001  -0.00001  -0.00001
 100        4S          0.00806   0.00105   0.00228  -0.00249   0.00341
 101        4PX         0.00461   0.00139   0.00176  -0.00108   0.00261
 102        4PY         0.00007  -0.00018   0.00002   0.00008   0.00040
 103        4PZ         0.00005   0.00001   0.00002  -0.00001   0.00003
 104        5D 0        0.00024   0.00029   0.00050  -0.00052   0.00084
 105        5D+1        0.00001   0.00000  -0.00001   0.00001  -0.00001
 106        5D-1        0.00001   0.00000   0.00000   0.00000  -0.00002
 107        5D+2        0.00015   0.00049  -0.00021   0.00044   0.00042
 108        5D-2        0.00108   0.00057   0.00067  -0.00030  -0.00037
 109 7   H  1S          0.00009  -0.00016  -0.00020   0.00006   0.00031
 110        2S         -0.00032  -0.00023   0.00165  -0.00176  -0.00171
 111        3S         -0.00088   0.00059  -0.00037   0.00065  -0.00011
 112        4PX         0.00013  -0.00022   0.00044  -0.00056  -0.00042
 113        4PY        -0.00009   0.00027  -0.00076   0.00092   0.00062
 114        4PZ         0.00000   0.00000   0.00000   0.00000   0.00000
 115 8   H  1S         -0.00041   0.00027  -0.00001  -0.00023  -0.00002
 116        2S          0.00292  -0.00246   0.00004  -0.00023  -0.00002
 117        3S          0.00047   0.00033   0.00009   0.00082   0.00006
 118        4PX        -0.00053   0.00058  -0.00007   0.00020   0.00006
 119        4PY        -0.00105   0.00114   0.00005   0.00040   0.00001
 120        4PZ        -0.00001   0.00002   0.00000   0.00001   0.00000
 121 9   H  1S          0.00009  -0.00016   0.00025   0.00010  -0.00030
 122        2S         -0.00032  -0.00023  -0.00199  -0.00200   0.00145
 123        3S         -0.00088   0.00059   0.00023   0.00062   0.00022
 124        4PX        -0.00015   0.00035   0.00098   0.00118  -0.00058
 125        4PY         0.00005  -0.00002   0.00009   0.00009  -0.00001
 126        4PZ         0.00000   0.00000   0.00001   0.00001  -0.00001
 127 10  H  1S         -0.00009  -0.00016   0.00020   0.00006   0.00031
 128        2S          0.00032  -0.00023  -0.00166  -0.00176  -0.00174
 129        3S          0.00088   0.00059   0.00037   0.00064  -0.00012
 130        4PX         0.00013   0.00022   0.00044   0.00056   0.00043
 131        4PY        -0.00009  -0.00027  -0.00076  -0.00092  -0.00062
 132        4PZ         0.00000   0.00000   0.00000   0.00000   0.00000
 133 11  H  1S          0.00041   0.00027   0.00001  -0.00023  -0.00002
 134        2S         -0.00293  -0.00245  -0.00004  -0.00023  -0.00001
 135        3S         -0.00047   0.00033  -0.00009   0.00082   0.00007
 136        4PX        -0.00054  -0.00058  -0.00007  -0.00020  -0.00006
 137        4PY        -0.00105  -0.00114   0.00005  -0.00040  -0.00001
 138        4PZ        -0.00001  -0.00002   0.00000  -0.00001   0.00000
 139 12  H  1S         -0.00009  -0.00016  -0.00025   0.00010  -0.00029
 140        2S          0.00032  -0.00023   0.00199  -0.00201   0.00143
 141        3S          0.00088   0.00059  -0.00023   0.00062   0.00021
 142        4PX        -0.00015  -0.00035   0.00098  -0.00118   0.00057
 143        4PY         0.00005   0.00002   0.00009  -0.00009   0.00001
 144        4PZ         0.00000   0.00000   0.00001  -0.00001   0.00001
                           6         7         8         9        10
                           O         O         O         O         O
     Eigenvalues --   -10.61196  -1.04528  -0.93426  -0.91078  -0.75928
   1 1   C  1S          0.30304  -0.04864  -0.03418  -0.06131   0.04782
   2        2S          0.24908  -0.07765  -0.05482  -0.09853   0.07774
   3        2PX         0.00040   0.01951   0.04167  -0.01144  -0.03122
   4        2PY         0.00026  -0.02301   0.01683  -0.02293  -0.04447
   5        2PZ         0.00001   0.00004   0.00057  -0.00029  -0.00067
   6        3S          0.00735   0.20025   0.14291   0.25776  -0.20705
   7        3PX        -0.00095   0.02896   0.06219  -0.01685  -0.04387
   8        3PY        -0.00107  -0.03479   0.02588  -0.03434  -0.06525
   9        3PZ        -0.00002   0.00005   0.00086  -0.00043  -0.00096
  10        4S         -0.01311   0.07801   0.06102   0.13007  -0.15278
  11        4PX        -0.00420   0.00486   0.01691  -0.00243  -0.02342
  12        4PY         0.00675  -0.00684   0.00782  -0.01484  -0.01082
  13        4PZ         0.00001   0.00000   0.00024  -0.00014  -0.00033
  14        5D 0       -0.00085  -0.00819  -0.00399  -0.00679   0.00378
  15        5D+1        0.00001   0.00016   0.00018   0.00013  -0.00014
  16        5D-1        0.00002   0.00010  -0.00005   0.00018  -0.00002
  17        5D+2       -0.00053   0.00082   0.01092  -0.00366  -0.00576
  18        5D-2        0.00049  -0.00004  -0.00160   0.00594  -0.00166
  19 2   C  1S         -0.00644  -0.05372  -0.07268  -0.00002   0.00023
  20        2S         -0.00524  -0.08652  -0.11771  -0.00004   0.00038
  21        2PX        -0.00015  -0.01385  -0.00657  -0.05124   0.09265
  22        2PY        -0.00018  -0.02720  -0.01295   0.02607  -0.04730
  23        2PZ         0.00000  -0.00035  -0.00016  -0.00036   0.00064
  24        3S         -0.00024   0.22668   0.31271   0.00010  -0.00103
  25        3PX         0.00034  -0.02128  -0.00999  -0.07798   0.13620
  26        3PY         0.00020  -0.04181  -0.01968   0.03968  -0.06954
  27        3PZ         0.00001  -0.00054  -0.00025  -0.00054   0.00094
  28        4S          0.01160   0.10503   0.16951   0.00011  -0.00080
  29        4PX        -0.00305  -0.00675  -0.00709  -0.02425   0.04572
  30        4PY        -0.00595  -0.01326  -0.01400   0.01231  -0.02326
  31        4PZ        -0.00008  -0.00017  -0.00018  -0.00017   0.00032
  32        5D 0        0.00037  -0.00808  -0.00715   0.00000   0.00001
  33        5D+1       -0.00001   0.00015   0.00013   0.00017  -0.00014
  34        5D-1        0.00000   0.00009   0.00003   0.00000   0.00000
  35        5D+2       -0.00030   0.00046   0.00286   0.01061  -0.00861
  36        5D-2        0.00023  -0.00062  -0.00392   0.00772  -0.00625
  37 3   C  1S          0.25978  -0.04865  -0.03420   0.06130  -0.04806
  38        2S          0.21351  -0.07767  -0.05486   0.09852  -0.07813
  39        2PX         0.00000  -0.03007  -0.01089   0.01178   0.01776
  40        2PY         0.00051   0.00225   0.04361   0.02277   0.05078
  41        2PZ         0.00000  -0.00030   0.00021   0.00029   0.00057
  42        3S          0.00632   0.20031   0.14302  -0.25776   0.20810
  43        3PX        -0.00029  -0.04518  -0.01565   0.01783   0.02720
  44        3PY        -0.00158   0.00295   0.06553   0.03388   0.07297
  45        3PZ        -0.00001  -0.00046   0.00032   0.00044   0.00084
  46        4S         -0.01287   0.07809   0.06109  -0.13018   0.15365
  47        4PX         0.00772  -0.00842  -0.00363   0.01062  -0.00502
  48        4PY         0.00058  -0.00008   0.01828   0.01067   0.02506
  49        4PZ         0.00009  -0.00009   0.00010   0.00019   0.00013
  50        5D 0       -0.00078  -0.00819  -0.00400   0.00679  -0.00380
  51        5D+1        0.00002   0.00014  -0.00003  -0.00012   0.00000
  52        5D-1        0.00002   0.00010  -0.00005  -0.00018   0.00002
  53        5D+2       -0.00033  -0.00022  -0.00184   0.00453  -0.00336
  54        5D-2        0.00075  -0.00079  -0.01089  -0.00532  -0.00490
  55 4   C  1S         -0.30009  -0.04864   0.03418   0.06131   0.04782
  56        2S         -0.24665  -0.07765   0.05482   0.09853   0.07774
  57        2PX         0.00040  -0.01951   0.04167  -0.01144   0.03122
  58        2PY         0.00026   0.02301   0.01683  -0.02293   0.04447
  59        2PZ         0.00001  -0.00004   0.00057  -0.00029   0.00067
  60        3S         -0.00728   0.20025  -0.14291  -0.25776  -0.20705
  61        3PX        -0.00095  -0.02896   0.06219  -0.01685   0.04387
  62        3PY        -0.00106   0.03479   0.02588  -0.03434   0.06525
  63        3PZ        -0.00002  -0.00005   0.00086  -0.00043   0.00096
  64        4S          0.01307   0.07801  -0.06102  -0.13007  -0.15278
  65        4PX        -0.00418  -0.00486   0.01691  -0.00243   0.02342
  66        4PY         0.00672   0.00684   0.00782  -0.01484   0.01082
  67        4PZ         0.00001   0.00000   0.00024  -0.00014   0.00033
  68        5D 0        0.00084  -0.00819   0.00399   0.00679   0.00378
  69        5D+1       -0.00001   0.00016  -0.00018  -0.00013  -0.00014
  70        5D-1       -0.00002   0.00010   0.00005  -0.00018  -0.00002
  71        5D+2        0.00053   0.00082  -0.01092   0.00366  -0.00576
  72        5D-2       -0.00048  -0.00004   0.00160  -0.00594  -0.00166
  73 5   C  1S          0.00643  -0.05372   0.07268   0.00002   0.00023
  74        2S          0.00524  -0.08652   0.11771   0.00004   0.00038
  75        2PX        -0.00015   0.01385  -0.00657  -0.05124  -0.09265
  76        2PY        -0.00018   0.02720  -0.01295   0.02607   0.04730
  77        2PZ         0.00000   0.00035  -0.00016  -0.00036  -0.00064
  78        3S          0.00024   0.22668  -0.31271  -0.00010  -0.00103
  79        3PX         0.00032   0.02128  -0.00999  -0.07798  -0.13620
  80        3PY         0.00020   0.04181  -0.01968   0.03968   0.06954
  81        3PZ         0.00001   0.00054  -0.00025  -0.00054  -0.00094
  82        4S         -0.01159   0.10503  -0.16951  -0.00011  -0.00080
  83        4PX        -0.00304   0.00675  -0.00709  -0.02425  -0.04572
  84        4PY        -0.00595   0.01326  -0.01400   0.01231   0.02326
  85        4PZ        -0.00008   0.00017  -0.00018  -0.00017  -0.00032
  86        5D 0       -0.00037  -0.00808   0.00715   0.00000   0.00001
  87        5D+1        0.00001   0.00015  -0.00013  -0.00017  -0.00014
  88        5D-1        0.00000   0.00009  -0.00003   0.00000   0.00000
  89        5D+2        0.00030   0.00046  -0.00286  -0.01061  -0.00861
  90        5D-2       -0.00023  -0.00062   0.00392  -0.00772  -0.00625
  91 6   C  1S         -0.26230  -0.04865   0.03420  -0.06130  -0.04806
  92        2S         -0.21558  -0.07767   0.05486  -0.09852  -0.07813
  93        2PX         0.00000   0.03007  -0.01089   0.01178  -0.01776
  94        2PY         0.00051  -0.00225   0.04361   0.02277  -0.05078
  95        2PZ         0.00000   0.00030   0.00021   0.00029  -0.00057
  96        3S         -0.00638   0.20031  -0.14302   0.25776   0.20810
  97        3PX        -0.00029   0.04518  -0.01565   0.01783  -0.02720
  98        3PY        -0.00159  -0.00295   0.06553   0.03388  -0.07297
  99        3PZ        -0.00001   0.00046   0.00032   0.00044  -0.00084
 100        4S          0.01291   0.07809  -0.06109   0.13018   0.15365
 101        4PX         0.00775   0.00842  -0.00363   0.01062   0.00502
 102        4PY         0.00058   0.00008   0.01828   0.01067  -0.02506
 103        4PZ         0.00009   0.00009   0.00010   0.00019  -0.00013
 104        5D 0        0.00079  -0.00819   0.00400  -0.00679  -0.00380
 105        5D+1       -0.00002   0.00014   0.00003   0.00012   0.00000
 106        5D-1       -0.00002   0.00010   0.00005   0.00018   0.00002
 107        5D+2        0.00033  -0.00022   0.00184  -0.00453  -0.00336
 108        5D-2       -0.00076  -0.00079   0.01089   0.00532  -0.00490
 109 7   H  1S          0.00037   0.01810   0.02064   0.03920  -0.05521
 110        2S         -0.00246   0.02128   0.02452   0.04770  -0.07143
 111        3S         -0.00095  -0.00442  -0.00236  -0.00263  -0.00402
 112        4PX        -0.00046   0.00246   0.00397   0.00392  -0.00740
 113        4PY         0.00066  -0.00350  -0.00290  -0.00766   0.00766
 114        4PZ         0.00000   0.00000   0.00002  -0.00002  -0.00002
 115 8   H  1S         -0.00014   0.02142   0.04609   0.00000  -0.00025
 116        2S          0.00055   0.02499   0.05400   0.00001  -0.00033
 117        3S          0.00125  -0.00447  -0.00446   0.00000  -0.00001
 118        4PX         0.00008  -0.00229  -0.00448  -0.00191   0.00367
 119        4PY         0.00015  -0.00449  -0.00881   0.00097  -0.00182
 120        4PZ         0.00000  -0.00006  -0.00012  -0.00001   0.00003
 121 9   H  1S          0.00034   0.01811   0.02066  -0.03922   0.05552
 122        2S         -0.00218   0.02131   0.02456  -0.04774   0.07182
 123        3S         -0.00099  -0.00442  -0.00236   0.00263   0.00404
 124        4PX         0.00067  -0.00428  -0.00469   0.00851  -0.01060
 125        4PY         0.00000  -0.00007   0.00150   0.00134   0.00145
 126        4PZ         0.00001  -0.00005  -0.00004   0.00010  -0.00010
 127 10  H  1S         -0.00037   0.01810  -0.02064  -0.03920  -0.05521
 128        2S          0.00244   0.02128  -0.02452  -0.04770  -0.07143
 129        3S          0.00095  -0.00442   0.00236   0.00263  -0.00402
 130        4PX        -0.00046  -0.00246   0.00397   0.00392   0.00740
 131        4PY         0.00065   0.00350  -0.00290  -0.00766  -0.00766
 132        4PZ         0.00000   0.00000   0.00002  -0.00002   0.00002
 133 11  H  1S          0.00014   0.02142  -0.04609   0.00000  -0.00025
 134        2S         -0.00055   0.02499  -0.05400  -0.00001  -0.00033
 135        3S         -0.00125  -0.00447   0.00446   0.00000  -0.00001
 136        4PX         0.00008   0.00229  -0.00448  -0.00191  -0.00367
 137        4PY         0.00015   0.00449  -0.00881   0.00097   0.00182
 138        4PZ         0.00000   0.00006  -0.00012  -0.00001  -0.00003
 139 12  H  1S         -0.00034   0.01811  -0.02066   0.03922   0.05552
 140        2S          0.00219   0.02131  -0.02456   0.04774   0.07182
 141        3S          0.00099  -0.00442   0.00236  -0.00263   0.00404
 142        4PX         0.00067   0.00428  -0.00469   0.00851   0.01060
 143        4PY         0.00000   0.00007   0.00150   0.00134  -0.00145
 144        4PZ         0.00001   0.00005  -0.00004   0.00010   0.00010
                          11        12        13        14        15
                           O         O         O         O         O
     Eigenvalues --    -0.75799  -0.66767  -0.59354  -0.59331  -0.56303
   1 1   C  1S          0.03018  -0.00969  -0.03268  -0.00660  -0.00564
   2        2S          0.04912  -0.01571  -0.05355  -0.01090  -0.00938
   3        2PX         0.07055  -0.05656   0.00297  -0.10962  -0.06958
   4        2PY         0.03858   0.06878   0.04622  -0.05561   0.05469
   5        2PZ         0.00104  -0.00009   0.00036  -0.00159  -0.00031
   6        3S         -0.13128   0.04227   0.14435   0.02969   0.02371
   7        3PX         0.10109  -0.08134   0.00562  -0.15902  -0.10365
   8        3PY         0.05502   0.10019   0.06859  -0.08164   0.07823
   9        3PZ         0.00149  -0.00012   0.00054  -0.00231  -0.00048
  10        4S         -0.09674   0.06102   0.18701   0.03777   0.05145
  11        4PX         0.02749  -0.03908   0.01181  -0.06926  -0.03333
  12        4PY         0.02453   0.05271   0.01382  -0.03778   0.05692
  13        4PZ         0.00048  -0.00003   0.00021  -0.00102   0.00009
  14        5D 0        0.00256   0.00194  -0.00074  -0.00008  -0.00018
  15        5D+1        0.00001   0.00005  -0.00013  -0.00007  -0.00017
  16        5D-1       -0.00012   0.00006  -0.00015   0.00003   0.00015
  17        5D+2        0.00734   0.00164  -0.00141  -0.00606  -0.01735
  18        5D-2       -0.00317   0.00867  -0.01632  -0.00104   0.00180
  19 2   C  1S         -0.05483  -0.00290   0.02724   0.00385   0.01761
  20        2S         -0.09004  -0.00458   0.04512   0.00638   0.02916
  21        2PX         0.01768   0.04325  -0.06216   0.11056   0.05481
  22        2PY         0.03376   0.08507  -0.08124  -0.07219   0.10775
  23        2PZ         0.00045   0.00111  -0.00131   0.00064   0.00144
  24        3S          0.24570   0.01150  -0.12248  -0.01730  -0.08509
  25        3PX         0.02660   0.06422  -0.09270   0.16625   0.08196
  26        3PY         0.05083   0.12633  -0.12071  -0.10830   0.16113
  27        3PZ         0.00068   0.00165  -0.00196   0.00097   0.00216
  28        4S          0.19234   0.03410  -0.18673  -0.02643  -0.08308
  29        4PX         0.00399   0.03535  -0.03802   0.07515   0.05395
  30        4PY         0.00734   0.06933  -0.04713  -0.04758   0.10586
  31        4PZ         0.00010   0.00091  -0.00079   0.00045   0.00142
  32        5D 0       -0.00276   0.00241  -0.00012  -0.00002  -0.00022
  33        5D+1        0.00005  -0.00004   0.00002  -0.00010   0.00001
  34        5D-1        0.00000  -0.00012  -0.00023  -0.00003  -0.00004
  35        5D+2        0.00180   0.00415   0.01134  -0.00478   0.00197
  36        5D-2       -0.00253  -0.00567  -0.01374  -0.00657  -0.00265
  37 3   C  1S          0.02981  -0.00964  -0.03322  -0.00267  -0.00560
  38        2S          0.04851  -0.01564  -0.05445  -0.00431  -0.00932
  39        2PX        -0.01020   0.08890   0.03983  -0.00889   0.08538
  40        2PY         0.08018  -0.00533  -0.00500   0.12484  -0.02404
  41        2PZ         0.00049   0.00092   0.00037   0.00083   0.00077
  42        3S         -0.12967   0.04208   0.14686   0.01130   0.02356
  43        3PX        -0.01480   0.12890   0.05802  -0.01202   0.12456
  44        3PY         0.11475  -0.00691  -0.00552   0.18219  -0.03773
  45        3PZ         0.00069   0.00133   0.00055   0.00122   0.00110
  46        4S         -0.09563   0.06063   0.19016   0.01536   0.05123
  47        4PX         0.00365   0.06579   0.00704  -0.00863   0.06589
  48        4PY         0.03692  -0.00066  -0.00458   0.08022   0.00654
  49        4PZ         0.00032   0.00070   0.00003   0.00050   0.00078
  50        5D 0        0.00253   0.00194  -0.00072  -0.00013  -0.00017
  51        5D+1       -0.00010  -0.00012   0.00017  -0.00003   0.00016
  52        5D-1       -0.00012   0.00005  -0.00013  -0.00008   0.00016
  53        5D+2        0.00073  -0.00874   0.01614   0.00167   0.00364
  54        5D-2       -0.00801   0.00112  -0.00204  -0.00624   0.01706
  55 4   C  1S          0.03018  -0.00969   0.03268   0.00660   0.00564
  56        2S          0.04912  -0.01571   0.05355   0.01090   0.00938
  57        2PX        -0.07055   0.05656   0.00297  -0.10962  -0.06958
  58        2PY        -0.03858  -0.06878   0.04622  -0.05561   0.05469
  59        2PZ        -0.00104   0.00009   0.00036  -0.00159  -0.00031
  60        3S         -0.13128   0.04227  -0.14435  -0.02969  -0.02371
  61        3PX        -0.10109   0.08134   0.00562  -0.15902  -0.10365
  62        3PY        -0.05502  -0.10019   0.06859  -0.08164   0.07823
  63        3PZ        -0.00149   0.00012   0.00054  -0.00231  -0.00048
  64        4S         -0.09674   0.06102  -0.18701  -0.03777  -0.05145
  65        4PX        -0.02749   0.03908   0.01181  -0.06926  -0.03333
  66        4PY        -0.02453  -0.05271   0.01382  -0.03778   0.05692
  67        4PZ        -0.00048   0.00003   0.00021  -0.00102   0.00009
  68        5D 0        0.00256   0.00194   0.00074   0.00008   0.00018
  69        5D+1        0.00001   0.00005   0.00013   0.00007   0.00017
  70        5D-1       -0.00012   0.00006   0.00015  -0.00003  -0.00015
  71        5D+2        0.00734   0.00164   0.00141   0.00606   0.01735
  72        5D-2       -0.00317   0.00867   0.01632   0.00104  -0.00180
  73 5   C  1S         -0.05483  -0.00290  -0.02724  -0.00385  -0.01761
  74        2S         -0.09004  -0.00458  -0.04512  -0.00638  -0.02916
  75        2PX        -0.01768  -0.04325  -0.06216   0.11056   0.05481
  76        2PY        -0.03376  -0.08507  -0.08124  -0.07219   0.10775
  77        2PZ        -0.00045  -0.00111  -0.00131   0.00064   0.00144
  78        3S          0.24570   0.01150   0.12248   0.01730   0.08509
  79        3PX        -0.02660  -0.06422  -0.09270   0.16625   0.08196
  80        3PY        -0.05083  -0.12633  -0.12071  -0.10830   0.16114
  81        3PZ        -0.00068  -0.00165  -0.00196   0.00097   0.00216
  82        4S          0.19234   0.03410   0.18673   0.02643   0.08308
  83        4PX        -0.00399  -0.03535  -0.03802   0.07515   0.05395
  84        4PY        -0.00734  -0.06933  -0.04713  -0.04758   0.10586
  85        4PZ        -0.00010  -0.00091  -0.00079   0.00045   0.00142
  86        5D 0       -0.00276   0.00241   0.00012   0.00002   0.00022
  87        5D+1        0.00005  -0.00004  -0.00002   0.00010  -0.00001
  88        5D-1        0.00000  -0.00012   0.00023   0.00003   0.00004
  89        5D+2        0.00180   0.00415  -0.01134   0.00478  -0.00197
  90        5D-2       -0.00253  -0.00567   0.01374   0.00657   0.00265
  91 6   C  1S          0.02981  -0.00964   0.03322   0.00267   0.00560
  92        2S          0.04851  -0.01564   0.05445   0.00431   0.00932
  93        2PX         0.01020  -0.08890   0.03983  -0.00889   0.08538
  94        2PY        -0.08018   0.00533  -0.00500   0.12484  -0.02404
  95        2PZ        -0.00049  -0.00092   0.00037   0.00083   0.00077
  96        3S         -0.12967   0.04208  -0.14686  -0.01130  -0.02356
  97        3PX         0.01480  -0.12890   0.05802  -0.01202   0.12456
  98        3PY        -0.11475   0.00691  -0.00552   0.18219  -0.03773
  99        3PZ        -0.00069  -0.00133   0.00055   0.00122   0.00110
 100        4S         -0.09563   0.06063  -0.19016  -0.01536  -0.05123
 101        4PX        -0.00365  -0.06579   0.00704  -0.00863   0.06589
 102        4PY        -0.03692   0.00066  -0.00458   0.08022   0.00654
 103        4PZ        -0.00032  -0.00070   0.00003   0.00050   0.00078
 104        5D 0        0.00253   0.00194   0.00072   0.00013   0.00017
 105        5D+1       -0.00010  -0.00012  -0.00017   0.00003  -0.00016
 106        5D-1       -0.00012   0.00005   0.00013   0.00008  -0.00016
 107        5D+2        0.00073  -0.00874  -0.01614  -0.00167  -0.00364
 108        5D-2       -0.00801   0.00112   0.00204   0.00624  -0.01706
 109 7   H  1S         -0.03105   0.06927   0.06504   0.01764   0.07258
 110        2S         -0.04061   0.08220   0.08785   0.02376   0.09718
 111        3S         -0.00291   0.00700   0.02298   0.00611   0.02266
 112        4PX        -0.00050   0.00558   0.00521  -0.00294   0.00308
 113        4PY         0.00658  -0.00932  -0.00534  -0.00452  -0.00840
 114        4PZ         0.00004  -0.00001   0.00001  -0.00007  -0.00003
 115 8   H  1S          0.07267   0.06669  -0.10642  -0.01497   0.07327
 116        2S          0.08998   0.07640  -0.13993  -0.01971   0.09522
 117        3S          0.00291   0.00396  -0.03018  -0.00426   0.01562
 118        4PX        -0.00581  -0.00428   0.00466   0.00559  -0.00396
 119        4PY        -0.01145  -0.00841   0.01086  -0.00098  -0.00779
 120        4PZ        -0.00015  -0.00011   0.00013   0.00005  -0.00010
 121 9   H  1S         -0.03062   0.06924   0.06751   0.00104   0.07272
 122        2S         -0.04009   0.08216   0.09119   0.00146   0.09739
 123        3S         -0.00288   0.00696   0.02379   0.00049   0.02269
 124        4PX         0.00554  -0.01082  -0.00765  -0.00019  -0.00863
 125        4PY         0.00348  -0.00097  -0.00036   0.00514  -0.00245
 126        4PZ         0.00009  -0.00012  -0.00009   0.00004  -0.00011
 127 10  H  1S         -0.03105   0.06927  -0.06504  -0.01764  -0.07258
 128        2S         -0.04061   0.08220  -0.08785  -0.02376  -0.09718
 129        3S         -0.00291   0.00700  -0.02298  -0.00611  -0.02266
 130        4PX         0.00050  -0.00558   0.00521  -0.00294   0.00308
 131        4PY        -0.00658   0.00932  -0.00534  -0.00452  -0.00840
 132        4PZ        -0.00004   0.00001   0.00001  -0.00007  -0.00003
 133 11  H  1S          0.07267   0.06669   0.10642   0.01497  -0.07327
 134        2S          0.08998   0.07640   0.13993   0.01971  -0.09522
 135        3S          0.00291   0.00396   0.03018   0.00426  -0.01562
 136        4PX         0.00581   0.00428   0.00466   0.00559  -0.00396
 137        4PY         0.01145   0.00841   0.01086  -0.00098  -0.00779
 138        4PZ         0.00015   0.00011   0.00013   0.00005  -0.00010
 139 12  H  1S         -0.03062   0.06924  -0.06751  -0.00104  -0.07272
 140        2S         -0.04009   0.08216  -0.09119  -0.00146  -0.09739
 141        3S         -0.00288   0.00696  -0.02379  -0.00049  -0.02269
 142        4PX        -0.00554   0.01082  -0.00765  -0.00019  -0.00863
 143        4PY        -0.00348   0.00097  -0.00036   0.00514  -0.00245
 144        4PZ        -0.00009   0.00012  -0.00009   0.00004  -0.00011
                          16        17        18        19        20
                           O         O         O         O         O
     Eigenvalues --    -0.54678  -0.52139  -0.46954  -0.46904  -0.40491
   1 1   C  1S         -0.00796  -0.00001  -0.00241   0.00060   0.00000
   2        2S         -0.01298  -0.00001  -0.00410   0.00099   0.00000
   3        2PX         0.04286  -0.00098  -0.10115   0.04989  -0.00071
   4        2PY        -0.11697  -0.00071   0.04088   0.10798  -0.00047
   5        2PZ        -0.00041   0.09366  -0.00078   0.00131   0.06931
   6        3S          0.03831   0.00003   0.00954  -0.00398   0.00000
   7        3PX         0.06118  -0.00162  -0.14477   0.06985  -0.00118
   8        3PY        -0.17297  -0.00116   0.06154   0.15661  -0.00078
   9        3PZ        -0.00063   0.15432  -0.00109   0.00187   0.11404
  10        4S          0.02136   0.00002   0.02601   0.00991   0.00000
  11        4PX         0.05340  -0.00104  -0.09836   0.02731  -0.00095
  12        4PY        -0.09812  -0.00073   0.06600   0.11072  -0.00063
  13        4PZ        -0.00016   0.09699  -0.00056   0.00109   0.09110
  14        5D 0       -0.00007   0.00005   0.00030   0.00027   0.00049
  15        5D+1       -0.00005   0.01030  -0.00032  -0.00008   0.02163
  16        5D-1        0.00010  -0.01109  -0.00006  -0.00024   0.00674
  17        5D+2       -0.00787  -0.00019  -0.01729   0.00600  -0.00018
  18        5D-2        0.00432   0.00004  -0.01743  -0.01735  -0.00024
  19 2   C  1S         -0.00003   0.00000   0.00009  -0.00123   0.00000
  20        2S         -0.00006   0.00001   0.00015  -0.00208   0.00001
  21        2PX        -0.02497  -0.00124   0.10898  -0.04165  -0.00177
  22        2PY         0.01268  -0.00090  -0.04835  -0.09753  -0.00127
  23        2PZ        -0.00017   0.11216   0.00082  -0.00126   0.16181
  24        3S          0.00017  -0.00001  -0.00065   0.00967  -0.00002
  25        3PX        -0.04078  -0.00205   0.16000  -0.06239  -0.00292
  26        3PY         0.02071  -0.00149  -0.07079  -0.14566  -0.00209
  27        3PZ        -0.00029   0.18527   0.00120  -0.00189   0.26745
  28        4S          0.00019   0.00001   0.00078  -0.01395  -0.00004
  29        4PX         0.00553  -0.00137   0.09222  -0.05253  -0.00242
  30        4PY        -0.00283  -0.00100  -0.03837  -0.11630  -0.00175
  31        4PZ         0.00004   0.12525   0.00071  -0.00152   0.22226
  32        5D 0        0.00000  -0.00031   0.00002  -0.00032  -0.00023
  33        5D+1        0.00026  -0.00697  -0.00021   0.00000  -0.00512
  34        5D-1        0.00001  -0.01371   0.00002  -0.00039  -0.01010
  35        5D+2        0.01620  -0.00002  -0.01406   0.01668  -0.00001
  36        5D-2        0.01181   0.00020  -0.00803  -0.02461   0.00014
  37 3   C  1S          0.00804  -0.00001   0.00231   0.00089   0.00000
  38        2S          0.01310  -0.00001   0.00393   0.00147   0.00000
  39        2PX         0.11960  -0.00102  -0.09881   0.04646  -0.00072
  40        2PY         0.03418  -0.00069   0.04487   0.11007  -0.00047
  41        2PZ         0.00153   0.09369  -0.00072   0.00129   0.06938
  42        3S         -0.03866   0.00003  -0.00894  -0.00510   0.00000
  43        3PX         0.17557  -0.00168  -0.14416   0.06879  -0.00119
  44        3PY         0.05233  -0.00113   0.06246   0.15727  -0.00078
  45        3PZ         0.00227   0.15437  -0.00108   0.00186   0.11415
  46        4S         -0.02181   0.00001  -0.02689   0.00678  -0.00002
  47        4PX         0.11065  -0.00105  -0.11920   0.05958  -0.00094
  48        4PY         0.01453  -0.00074   0.02998   0.09153  -0.00064
  49        4PZ         0.00129   0.09707  -0.00105   0.00129   0.09122
  50        5D 0        0.00007  -0.00025  -0.00035   0.00024   0.00014
  51        5D+1       -0.00005  -0.01503  -0.00032   0.00004  -0.00728
  52        5D-1       -0.00011   0.00181   0.00008  -0.00023   0.02146
  53        5D+2        0.00166   0.00018  -0.02351   0.01193   0.00025
  54        5D-2       -0.00884   0.00008  -0.00969  -0.01228  -0.00018
  55 4   C  1S          0.00796   0.00001  -0.00241   0.00060   0.00000
  56        2S          0.01298   0.00001  -0.00410   0.00099   0.00000
  57        2PX         0.04286  -0.00098   0.10115  -0.04989   0.00071
  58        2PY        -0.11697  -0.00071  -0.04088  -0.10798   0.00047
  59        2PZ        -0.00041   0.09366   0.00078  -0.00131  -0.06931
  60        3S         -0.03831  -0.00003   0.00954  -0.00398   0.00000
  61        3PX         0.06118  -0.00162   0.14477  -0.06985   0.00118
  62        3PY        -0.17297  -0.00116  -0.06154  -0.15661   0.00078
  63        3PZ        -0.00063   0.15432   0.00109  -0.00187  -0.11404
  64        4S         -0.02136  -0.00002   0.02601   0.00991   0.00000
  65        4PX         0.05340  -0.00104   0.09836  -0.02731   0.00095
  66        4PY        -0.09812  -0.00073  -0.06600  -0.11072   0.00063
  67        4PZ        -0.00016   0.09699   0.00056  -0.00109  -0.09110
  68        5D 0        0.00007  -0.00005   0.00030   0.00027   0.00049
  69        5D+1        0.00005  -0.01030  -0.00032  -0.00008   0.02163
  70        5D-1       -0.00010   0.01109  -0.00006  -0.00024   0.00674
  71        5D+2        0.00787   0.00019  -0.01729   0.00600  -0.00018
  72        5D-2       -0.00432  -0.00004  -0.01743  -0.01735  -0.00024
  73 5   C  1S          0.00003   0.00000   0.00009  -0.00123   0.00000
  74        2S          0.00006  -0.00001   0.00015  -0.00208   0.00001
  75        2PX        -0.02497  -0.00124  -0.10898   0.04165   0.00177
  76        2PY         0.01268  -0.00090   0.04835   0.09753   0.00127
  77        2PZ        -0.00017   0.11216  -0.00082   0.00126  -0.16181
  78        3S         -0.00017   0.00001  -0.00065   0.00967  -0.00002
  79        3PX        -0.04078  -0.00205  -0.16000   0.06239   0.00292
  80        3PY         0.02071  -0.00149   0.07079   0.14566   0.00209
  81        3PZ        -0.00029   0.18527  -0.00120   0.00189  -0.26745
  82        4S         -0.00019  -0.00001   0.00078  -0.01395  -0.00004
  83        4PX         0.00553  -0.00137  -0.09222   0.05253   0.00242
  84        4PY        -0.00283  -0.00100   0.03837   0.11630   0.00175
  85        4PZ         0.00004   0.12525  -0.00071   0.00152  -0.22226
  86        5D 0        0.00000   0.00031   0.00002  -0.00032  -0.00023
  87        5D+1       -0.00026   0.00697  -0.00021   0.00000  -0.00512
  88        5D-1       -0.00001   0.01371   0.00002  -0.00039  -0.01010
  89        5D+2       -0.01620   0.00002  -0.01406   0.01668  -0.00001
  90        5D-2       -0.01181  -0.00020  -0.00803  -0.02461   0.00014
  91 6   C  1S         -0.00804   0.00001   0.00231   0.00089   0.00000
  92        2S         -0.01310   0.00001   0.00393   0.00147   0.00000
  93        2PX         0.11960  -0.00102   0.09881  -0.04646   0.00072
  94        2PY         0.03418  -0.00069  -0.04487  -0.11007   0.00047
  95        2PZ         0.00153   0.09369   0.00072  -0.00129  -0.06938
  96        3S          0.03866  -0.00003  -0.00894  -0.00510   0.00000
  97        3PX         0.17557  -0.00168   0.14416  -0.06879   0.00119
  98        3PY         0.05233  -0.00113  -0.06246  -0.15727   0.00078
  99        3PZ         0.00227   0.15437   0.00108  -0.00186  -0.11415
 100        4S          0.02181  -0.00001  -0.02689   0.00678  -0.00002
 101        4PX         0.11065  -0.00105   0.11920  -0.05958   0.00094
 102        4PY         0.01453  -0.00074  -0.02998  -0.09153   0.00064
 103        4PZ         0.00129   0.09707   0.00105  -0.00129  -0.09122
 104        5D 0       -0.00007   0.00025  -0.00035   0.00024   0.00014
 105        5D+1        0.00005   0.01503  -0.00032   0.00004  -0.00728
 106        5D-1        0.00011  -0.00181   0.00008  -0.00023   0.02146
 107        5D+2       -0.00166  -0.00018  -0.02351   0.01193   0.00025
 108        5D-2        0.00884  -0.00008  -0.00969  -0.01228  -0.00018
 109 7   H  1S         -0.08817  -0.00001   0.08740   0.05825   0.00002
 110        2S         -0.11801  -0.00002   0.12045   0.07940   0.00004
 111        3S         -0.02728  -0.00001   0.04395   0.02823   0.00002
 112        4PX        -0.00740  -0.00006   0.00118   0.00703  -0.00004
 113        4PY         0.00800  -0.00004  -0.00749  -0.00101  -0.00003
 114        4PZ        -0.00002   0.00521  -0.00004   0.00007   0.00422
 115 8   H  1S          0.00002  -0.00004   0.00588  -0.09759  -0.00003
 116        2S          0.00001  -0.00007   0.00812  -0.13502  -0.00005
 117        3S          0.00001  -0.00002   0.00287  -0.04791  -0.00003
 118        4PX        -0.00203  -0.00006   0.00534   0.00331  -0.00010
 119        4PY         0.00104  -0.00004  -0.00317   0.00569  -0.00007
 120        4PZ        -0.00001   0.00579   0.00003   0.00008   0.00956
 121 9   H  1S          0.08792  -0.00001  -0.09370   0.04736   0.00003
 122        2S          0.11771  -0.00001  -0.12908   0.06441   0.00004
 123        3S          0.02717   0.00000  -0.04698   0.02275   0.00001
 124        4PX        -0.01079  -0.00006   0.00730  -0.00412  -0.00005
 125        4PY         0.00129  -0.00004   0.00281   0.00547  -0.00003
 126        4PZ        -0.00011   0.00522   0.00010  -0.00001   0.00423
 127 10  H  1S          0.08817   0.00001   0.08740   0.05825   0.00002
 128        2S          0.11801   0.00002   0.12045   0.07940   0.00004
 129        3S          0.02728   0.00001   0.04395   0.02823   0.00002
 130        4PX        -0.00740  -0.00006  -0.00118  -0.00703   0.00004
 131        4PY         0.00800  -0.00004   0.00749   0.00101   0.00003
 132        4PZ        -0.00002   0.00521   0.00004  -0.00007  -0.00422
 133 11  H  1S         -0.00002   0.00004   0.00588  -0.09759  -0.00003
 134        2S         -0.00001   0.00007   0.00812  -0.13502  -0.00005
 135        3S         -0.00001   0.00002   0.00287  -0.04791  -0.00003
 136        4PX        -0.00203  -0.00006  -0.00534  -0.00331   0.00010
 137        4PY         0.00104  -0.00004   0.00317  -0.00569   0.00007
 138        4PZ        -0.00001   0.00579  -0.00003  -0.00008  -0.00956
 139 12  H  1S         -0.08792   0.00001  -0.09370   0.04736   0.00003
 140        2S         -0.11771   0.00001  -0.12908   0.06441   0.00004
 141        3S         -0.02717   0.00000  -0.04698   0.02275   0.00001
 142        4PX        -0.01079  -0.00006  -0.00730   0.00412   0.00005
 143        4PY         0.00129  -0.00004  -0.00281  -0.00547   0.00003
 144        4PZ        -0.00011   0.00522  -0.00010   0.00001  -0.00423
                          21        22        23        24        25
                           O         V         V         V         V
     Eigenvalues --    -0.37060  -0.05540  -0.03489   0.05944   0.09608
   1 1   C  1S          0.00000  -0.00001   0.00000   0.01781   0.00713
   2        2S          0.00000  -0.00001   0.00000   0.02898   0.01163
   3        2PX         0.00140   0.00094  -0.00152   0.02373   0.01419
   4        2PY         0.00097   0.00065  -0.00106  -0.03429  -0.04056
   5        2PZ        -0.13069  -0.08754   0.14174  -0.00002  -0.00015
   6        3S          0.00001   0.00003   0.00000  -0.07375  -0.02454
   7        3PX         0.00231   0.00145  -0.00234   0.02248   0.01870
   8        3PY         0.00160   0.00100  -0.00162  -0.03332  -0.02645
   9        3PZ        -0.21566  -0.13532   0.21793  -0.00004   0.00000
  10        4S          0.00002  -0.00007  -0.00005  -0.47897  -0.40195
  11        4PX         0.00203   0.00260  -0.00466   0.12316   0.12752
  12        4PY         0.00140   0.00190  -0.00322  -0.18295  -0.16633
  13        4PZ        -0.18841  -0.24907   0.43484  -0.00010   0.00017
  14        5D 0        0.00023   0.00069   0.00049  -0.00566  -0.00087
  15        5D+1        0.00267   0.02720   0.01355  -0.00018  -0.00003
  16        5D-1        0.01429   0.01416   0.01834  -0.00011  -0.00024
  17        5D+2        0.00008  -0.00018  -0.00001  -0.01008   0.00845
  18        5D-2       -0.00017  -0.00036  -0.00030  -0.02382  -0.01768
  19 2   C  1S          0.00000   0.00001   0.00000   0.01868   0.01658
  20        2S          0.00000   0.00001   0.00000   0.03085   0.02762
  21        2PX         0.00000  -0.00179   0.00000  -0.02112  -0.04109
  22        2PY         0.00000  -0.00126   0.00000  -0.04148  -0.08064
  23        2PZ        -0.00006   0.16556  -0.00041  -0.00053  -0.00107
  24        3S          0.00000  -0.00003   0.00000  -0.08300  -0.06892
  25        3PX         0.00001  -0.00281   0.00000  -0.02225  -0.03547
  26        3PY         0.00000  -0.00198   0.00001  -0.04367  -0.06969
  27        3PZ        -0.00010   0.25942  -0.00064  -0.00055  -0.00092
  28        4S          0.00000   0.00006   0.00001  -0.49579  -0.67863
  29        4PX         0.00001  -0.00505   0.00000  -0.11694  -0.26664
  30        4PY         0.00000  -0.00361  -0.00001  -0.23015  -0.52418
  31        4PZ        -0.00010   0.46301  -0.00126  -0.00301  -0.00695
  32        5D 0        0.00030   0.00024  -0.00045  -0.00594  -0.00286
  33        5D+1        0.02461   0.00552  -0.03768   0.00011   0.00005
  34        5D-1       -0.01253   0.01106   0.01915   0.00044   0.00037
  35        5D+2       -0.00036   0.00002   0.00055  -0.01598  -0.01473
  36        5D-2       -0.00005  -0.00016   0.00008   0.02197   0.02014
  37 3   C  1S          0.00000  -0.00001   0.00000   0.01783   0.00723
  38        2S          0.00000  -0.00001   0.00000   0.02901   0.01179
  39        2PX        -0.00140   0.00094   0.00151  -0.04171  -0.04167
  40        2PY        -0.00097   0.00065   0.00105  -0.00100  -0.01241
  41        2PZ         0.13072  -0.08829  -0.14127  -0.00047  -0.00054
  42        3S         -0.00001   0.00003   0.00000  -0.07382  -0.02492
  43        3PX        -0.00231   0.00146   0.00234  -0.04020  -0.03279
  44        3PY        -0.00160   0.00101   0.00162  -0.00145  -0.00056
  45        3PZ         0.21569  -0.13647  -0.21720  -0.00047  -0.00035
  46        4S         -0.00002  -0.00007   0.00000  -0.47988  -0.40663
  47        4PX        -0.00201   0.00277   0.00465  -0.22038  -0.21279
  48        4PY        -0.00140   0.00184   0.00323  -0.00819   0.00489
  49        4PZ         0.18851  -0.25119  -0.43346  -0.00248  -0.00221
  50        5D 0       -0.00032   0.00031  -0.00041  -0.00565  -0.00088
  51        5D+1       -0.00996  -0.00460  -0.00684   0.00040   0.00008
  52        5D-1       -0.01057   0.03022  -0.02192  -0.00010  -0.00024
  53        5D+2        0.00003   0.00028  -0.00009   0.02579   0.01435
  54        5D-2        0.00019  -0.00029   0.00028   0.00227  -0.01342
  55 4   C  1S          0.00000   0.00001   0.00000   0.01781  -0.00713
  56        2S          0.00000   0.00001   0.00000   0.02898  -0.01163
  57        2PX        -0.00140   0.00094  -0.00152  -0.02373   0.01419
  58        2PY        -0.00097   0.00065  -0.00106   0.03429  -0.04056
  59        2PZ         0.13069  -0.08754   0.14174   0.00002  -0.00015
  60        3S          0.00001  -0.00003   0.00001  -0.07375   0.02454
  61        3PX        -0.00231   0.00145  -0.00234  -0.02248   0.01870
  62        3PY        -0.00160   0.00100  -0.00162   0.03332  -0.02645
  63        3PZ         0.21566  -0.13532   0.21793   0.00004   0.00000
  64        4S          0.00002   0.00007   0.00005  -0.47897   0.40195
  65        4PX        -0.00203   0.00260  -0.00466  -0.12316   0.12752
  66        4PY        -0.00140   0.00190  -0.00322   0.18295  -0.16633
  67        4PZ         0.18841  -0.24907   0.43484   0.00010   0.00017
  68        5D 0        0.00023  -0.00069  -0.00049  -0.00566   0.00087
  69        5D+1        0.00267  -0.02720  -0.01355  -0.00018   0.00003
  70        5D-1        0.01429  -0.01416  -0.01834  -0.00011   0.00024
  71        5D+2        0.00008   0.00018   0.00001  -0.01008  -0.00845
  72        5D-2       -0.00017   0.00036   0.00030  -0.02382   0.01768
  73 5   C  1S          0.00000  -0.00001   0.00000   0.01868  -0.01658
  74        2S          0.00000  -0.00001   0.00000   0.03085  -0.02762
  75        2PX         0.00000  -0.00179   0.00000   0.02112  -0.04109
  76        2PY         0.00000  -0.00126   0.00000   0.04148  -0.08064
  77        2PZ         0.00006   0.16556  -0.00041   0.00053  -0.00107
  78        3S          0.00000   0.00003   0.00000  -0.08300   0.06892
  79        3PX        -0.00001  -0.00281   0.00000   0.02225  -0.03547
  80        3PY         0.00000  -0.00198   0.00001   0.04367  -0.06969
  81        3PZ         0.00010   0.25942  -0.00064   0.00055  -0.00092
  82        4S          0.00000  -0.00006  -0.00001  -0.49579   0.67863
  83        4PX        -0.00001  -0.00505   0.00000   0.11694  -0.26664
  84        4PY         0.00000  -0.00361  -0.00001   0.23015  -0.52418
  85        4PZ         0.00010   0.46301  -0.00126   0.00301  -0.00695
  86        5D 0        0.00030  -0.00024   0.00045  -0.00594   0.00286
  87        5D+1        0.02461  -0.00552   0.03768   0.00011  -0.00005
  88        5D-1       -0.01253  -0.01106  -0.01915   0.00044  -0.00037
  89        5D+2       -0.00036  -0.00002  -0.00055  -0.01598   0.01473
  90        5D-2       -0.00005   0.00016  -0.00008   0.02197  -0.02014
  91 6   C  1S          0.00000   0.00001   0.00000   0.01783  -0.00723
  92        2S          0.00000   0.00001   0.00000   0.02901  -0.01179
  93        2PX         0.00140   0.00094   0.00151   0.04171  -0.04167
  94        2PY         0.00097   0.00065   0.00105   0.00100  -0.01241
  95        2PZ        -0.13072  -0.08829  -0.14127   0.00047  -0.00054
  96        3S         -0.00001  -0.00003   0.00000  -0.07382   0.02492
  97        3PX         0.00231   0.00146   0.00234   0.04020  -0.03279
  98        3PY         0.00160   0.00101   0.00162   0.00145  -0.00056
  99        3PZ        -0.21569  -0.13647  -0.21720   0.00047  -0.00035
 100        4S         -0.00002   0.00007   0.00000  -0.47988   0.40662
 101        4PX         0.00201   0.00277   0.00465   0.22038  -0.21279
 102        4PY         0.00140   0.00184   0.00323   0.00819   0.00489
 103        4PZ        -0.18851  -0.25119  -0.43346   0.00248  -0.00221
 104        5D 0       -0.00032  -0.00031   0.00041  -0.00565   0.00088
 105        5D+1       -0.00996   0.00460   0.00684   0.00040  -0.00008
 106        5D-1       -0.01057  -0.03022   0.02192  -0.00010   0.00024
 107        5D+2        0.00003  -0.00028   0.00009   0.02579  -0.01435
 108        5D-2        0.00019   0.00029  -0.00028   0.00227   0.01342
 109 7   H  1S          0.00000   0.00000   0.00000   0.02816   0.00806
 110        2S          0.00000   0.00000   0.00001   0.03964  -0.00131
 111        3S          0.00000  -0.00003   0.00000   0.63722   0.52754
 112        4PX         0.00009   0.00008  -0.00014  -0.00840  -0.00511
 113        4PY         0.00006   0.00006  -0.00009   0.01374   0.01130
 114        4PZ        -0.00841  -0.00784   0.01268   0.00001   0.00003
 115 8   H  1S          0.00000   0.00003   0.00000   0.03054   0.02043
 116        2S          0.00000   0.00006   0.00000   0.05750   0.03629
 117        3S          0.00000   0.00007   0.00001   0.68413   1.18950
 118        4PX         0.00000  -0.00016   0.00000   0.00732   0.01114
 119        4PY         0.00000  -0.00011   0.00000   0.01437   0.02183
 120        4PZ         0.00000   0.01472  -0.00004   0.00019   0.00029
 121 9   H  1S          0.00000   0.00000   0.00000   0.02816   0.00812
 122        2S          0.00000  -0.00001  -0.00001   0.03962  -0.00134
 123        3S          0.00000  -0.00002   0.00000   0.63783   0.53456
 124        4PX        -0.00009   0.00009   0.00014   0.01606   0.01230
 125        4PY        -0.00006   0.00006   0.00009   0.00129   0.00252
 126        4PZ         0.00842  -0.00792  -0.01265   0.00018   0.00015
 127 10  H  1S          0.00000   0.00000   0.00000   0.02816  -0.00806
 128        2S          0.00000   0.00000  -0.00001   0.03964   0.00131
 129        3S          0.00000   0.00003   0.00000   0.63722  -0.52754
 130        4PX        -0.00009   0.00008  -0.00014   0.00840  -0.00511
 131        4PY        -0.00006   0.00006  -0.00009  -0.01374   0.01130
 132        4PZ         0.00841  -0.00784   0.01268  -0.00001   0.00003
 133 11  H  1S          0.00000  -0.00003   0.00000   0.03054  -0.02043
 134        2S          0.00000  -0.00006   0.00000   0.05750  -0.03629
 135        3S          0.00000  -0.00007  -0.00001   0.68413  -1.18949
 136        4PX         0.00000  -0.00016   0.00000  -0.00732   0.01114
 137        4PY         0.00000  -0.00011   0.00000  -0.01437   0.02183
 138        4PZ         0.00000   0.01472  -0.00004  -0.00019   0.00029
 139 12  H  1S          0.00000   0.00000   0.00000   0.02816  -0.00812
 140        2S          0.00000   0.00001   0.00001   0.03962   0.00134
 141        3S          0.00000   0.00002   0.00000   0.63783  -0.53456
 142        4PX         0.00009   0.00009   0.00014  -0.01606   0.01230
 143        4PY         0.00006   0.00006   0.00009  -0.00129   0.00252
 144        4PZ        -0.00842  -0.00792  -0.01265  -0.00018   0.00015
                          26        27        28        29        30
                           V         V         V         V         V
     Eigenvalues --     0.10010   0.12945   0.13346   0.13362   0.15942
   1 1   C  1S          0.01365  -0.01699   0.02863   0.00003  -0.02396
   2        2S          0.02230  -0.02872   0.04851   0.00006  -0.04223
   3        2PX         0.04582   0.00988   0.03291  -0.00137  -0.01503
   4        2PY        -0.06031   0.03489  -0.02634  -0.00102   0.02823
   5        2PZ         0.00004   0.00024  -0.00007   0.13334   0.00005
   6        3S         -0.04979   0.07338  -0.12634  -0.00015   0.16884
   7        3PX         0.03024   0.01674   0.00865  -0.00216  -0.01299
   8        3PY        -0.04989   0.01542  -0.00136  -0.00152   0.02835
   9        3PZ        -0.00005   0.00009  -0.00026   0.20330   0.00007
  10        4S         -0.64040   0.59439  -0.99889  -0.00121  -1.28463
  11        4PX         0.24184   0.04544   0.41868  -0.00575  -0.90411
  12        4PY        -0.39774   0.41939  -0.39128  -0.00483   1.43556
  13        4PZ        -0.00039   0.00311   0.00053   0.61135   0.00104
  14        5D 0       -0.00248   0.00436  -0.00787   0.00008   0.01719
  15        5D+1       -0.00024  -0.00012   0.00014  -0.00617  -0.00041
  16        5D-1       -0.00002   0.00002   0.00013   0.01562  -0.00025
  17        5D+2       -0.01552  -0.00691  -0.00383   0.00017  -0.00370
  18        5D-2       -0.01603   0.00352   0.00261  -0.00011  -0.00588
  19 2   C  1S          0.00006   0.03269   0.00001   0.00003   0.02353
  20        2S          0.00010   0.05611   0.00001   0.00005   0.04201
  21        2PX         0.00866  -0.02102  -0.02764   0.00134  -0.01284
  22        2PY        -0.00478  -0.04120   0.01409   0.00097  -0.02511
  23        2PZ         0.00006  -0.00043   0.00003  -0.13087  -0.00035
  24        3S         -0.00024  -0.15241  -0.00005  -0.00012  -0.17181
  25        3PX        -0.00516  -0.00520  -0.02267   0.00216  -0.01495
  26        3PY         0.00231  -0.01012   0.01159   0.00156  -0.02914
  27        3PZ        -0.00004   0.00005   0.00019  -0.20436  -0.00041
  28        4S         -0.00210  -1.13475   0.00023  -0.00114   1.28144
  29        4PX        -0.02538  -0.28637  -0.29059   0.00541  -0.75305
  30        4PY         0.01035  -0.56219   0.14788   0.00405  -1.47776
  31        4PZ        -0.00020  -0.00691  -0.00105  -0.57207  -0.01934
  32        5D 0       -0.00001  -0.01028  -0.00001  -0.00039  -0.01840
  33        5D+1        0.00023   0.00020  -0.00012  -0.00882   0.00034
  34        5D-1        0.00001   0.00012   0.00003  -0.01729   0.00011
  35        5D+2        0.01402   0.00159  -0.00826  -0.00005   0.00580
  36        5D-2        0.01031  -0.00220  -0.00599   0.00024  -0.00798
[...]
  11. BD (   1) C   4 - H  10        /135. BD*(   1) C   2 - C   3            2.16    1.22    0.065
  11. BD (   1) C   4 - H  10        /137. BD*(   1) C   3 - C   4            0.43    1.21    0.029
  11. BD (   1) C   4 - H  10        /139. BD*(   1) C   3 - H   9            0.47    1.12    0.029
  11. BD (   1) C   4 - H  10        /140. BD*(   1) C   4 - C   5            0.26    1.22    0.023
  11. BD (   1) C   4 - H  10        /142. BD*(   1) C   5 - C   6            1.95    1.22    0.062
  11. BD (   1) C   4 - H  10        /143. BD*(   1) C   5 - H  11            0.46    1.12    0.029
  12. BD (   1) C   5 - C   6        / 23. RY*(   1) C   1                    0.52    2.08    0.042
  12. BD (   1) C   5 - C   6        / 24. RY*(   2) C   1                    0.70    2.41    0.052
  12. BD (   1) C   5 - C   6        / 62. RY*(   1) C   4                    0.65    2.08    0.047
  12. BD (   1) C   5 - C   6        / 63. RY*(   2) C   4                    0.66    2.41    0.050
  12. BD (   1) C   5 - C   6        /132. BD*(   1) C   1 - C   6            1.16    1.42    0.051
  12. BD (   1) C   5 - C   6        /134. BD*(   1) C   1 - H   7            1.13    1.34    0.049
  12. BD (   1) C   5 - C   6        /140. BD*(   1) C   4 - C   5            0.99    1.43    0.048
  12. BD (   1) C   5 - C   6        /141. BD*(   1) C   4 - H  10            1.22    1.34    0.051
  12. BD (   1) C   5 - C   6        /143. BD*(   1) C   5 - H  11            0.41    1.34    0.030
  12. BD (   1) C   5 - C   6        /144. BD*(   1) C   6 - H  12            0.48    1.34    0.032
  13. BD (   1) C   5 - H  11        / 62. RY*(   1) C   4                    0.82    1.88    0.050
  13. BD (   1) C   5 - H  11        / 88. RY*(   1) C   6                    0.82    1.88    0.050
  13. BD (   1) C   5 - H  11        /132. BD*(   1) C   1 - C   6            2.16    1.22    0.065
  13. BD (   1) C   5 - H  11        /137. BD*(   1) C   3 - C   4            2.16    1.22    0.065
  13. BD (   1) C   5 - H  11        /141. BD*(   1) C   4 - H  10            0.49    1.14    0.030
  13. BD (   1) C   5 - H  11        /144. BD*(   1) C   6 - H  12            0.49    1.14    0.030
  14. BD (   1) C   6 - H  12        / 23. RY*(   1) C   1                    0.78    1.87    0.048
  14. BD (   1) C   6 - H  12        / 75. RY*(   1) C   5                    0.72    1.87    0.047
  14. BD (   1) C   6 - H  12        /131. BD*(   1) C   1 - C   2            2.16    1.22    0.065
  14. BD (   1) C   6 - H  12        /132. BD*(   1) C   1 - C   6            0.43    1.21    0.029
  14. BD (   1) C   6 - H  12        /134. BD*(   1) C   1 - H   7            0.47    1.12    0.029
  14. BD (   1) C   6 - H  12        /140. BD*(   1) C   4 - C   5            1.95    1.22    0.062
  14. BD (   1) C   6 - H  12        /142. BD*(   1) C   5 - C   6            0.26    1.22    0.023
  14. BD (   1) C   6 - H  12        /143. BD*(   1) C   5 - H  11            0.46    1.12    0.029
  15. CR (   1) C   1                / 37. RY*(   2) C   2                    0.65   12.03    0.111
  15. CR (   1) C   1                / 89. RY*(   2) C   6                    0.68   12.03    0.114
  15. CR (   1) C   1                /102. RY*(   2) H   7                    0.29   12.46    0.075
  15. CR (   1) C   1                /135. BD*(   1) C   2 - C   3            0.35   11.06    0.079
  15. CR (   1) C   1                /142. BD*(   1) C   5 - C   6            0.39   11.06    0.084
  16. CR (   1) C   2                / 24. RY*(   2) C   1                    0.73   12.06    0.118
  16. CR (   1) C   2                / 50. RY*(   2) C   3                    0.73   12.06    0.118
  16. CR (   1) C   2                /132. BD*(   1) C   1 - C   6            0.38   11.08    0.082
  16. CR (   1) C   2                /137. BD*(   1) C   3 - C   4            0.38   11.08    0.082
  17. CR (   1) C   3                / 37. RY*(   2) C   2                    0.65   12.03    0.111
  17. CR (   1) C   3                / 63. RY*(   2) C   4                    0.68   12.03    0.114
  17. CR (   1) C   3                /112. RY*(   2) H   9                    0.29   12.46    0.075
  17. CR (   1) C   3                /131. BD*(   1) C   1 - C   2            0.35   11.06    0.079
  17. CR (   1) C   3                /140. BD*(   1) C   4 - C   5            0.39   11.06    0.084
  18. CR (   1) C   4                / 50. RY*(   2) C   3                    0.68   12.03    0.114
  18. CR (   1) C   4                / 76. RY*(   2) C   5                    0.65   12.03    0.111
  18. CR (   1) C   4                /117. RY*(   2) H  10                    0.29   12.46    0.075
  18. CR (   1) C   4                /135. BD*(   1) C   2 - C   3            0.39   11.06    0.084
  18. CR (   1) C   4                /142. BD*(   1) C   5 - C   6            0.35   11.06    0.079
  19. CR (   1) C   5                / 63. RY*(   2) C   4                    0.73   12.06    0.118
  19. CR (   1) C   5                / 89. RY*(   2) C   6                    0.73   12.06    0.118
  19. CR (   1) C   5                /132. BD*(   1) C   1 - C   6            0.38   11.08    0.082
  19. CR (   1) C   5                /137. BD*(   1) C   3 - C   4            0.38   11.08    0.082
  20. CR (   1) C   6                / 24. RY*(   2) C   1                    0.68   12.03    0.114
  20. CR (   1) C   6                / 76. RY*(   2) C   5                    0.65   12.03    0.111
  20. CR (   1) C   6                /127. RY*(   2) H  12                    0.29   12.46    0.075
  20. CR (   1) C   6                /131. BD*(   1) C   1 - C   2            0.39   11.06    0.084
  20. CR (   1) C   6                /140. BD*(   1) C   4 - C   5            0.35   11.06    0.079
  21. LP*(   1) C   2                / 25. RY*(   3) C   1                    0.38    0.86    0.064
  21. LP*(   1) C   2                / 45. RY*(  10) C   2                    1.23    0.62    0.098
  21. LP*(   1) C   2                / 51. RY*(   3) C   3                    0.38    0.86    0.064
  21. LP*(   1) C   2                /133. BD*(   2) C   1 - C   6            7.99    0.11    0.103
  21. LP*(   1) C   2                /138. BD*(   2) C   3 - C   4            7.99    0.11    0.103
  22. LP*(   1) C   5                / 64. RY*(   3) C   4                    0.38    0.86    0.064
  22. LP*(   1) C   5                / 84. RY*(  10) C   5                    1.23    0.62    0.098
  22. LP*(   1) C   5                / 90. RY*(   3) C   6                    0.38    0.86    0.064
  22. LP*(   1) C   5                /133. BD*(   2) C   1 - C   6            7.99    0.11    0.103
  22. LP*(   1) C   5                /138. BD*(   2) C   3 - C   4            7.99    0.11    0.103


 Natural Bond Orbitals (Summary):

                                                            Principal Delocalizations
           NBO                        Occupancy    Energy   (geminal,vicinal,remote)
 ====================================================================================
 Molecular unit  1  (C6H6)
     1. BD (   1) C   1 - C   2          0.99198    -0.84937  139(v),132(g),144(v),135(g)
                                                    89(v),50(v),49(v),88(v)
                                                    134(g),136(g)
     2. BD (   1) C   1 - C   6          0.99196    -0.83890  131(g),142(g),136(v),143(v)
                                                    134(g),144(g),76(v),37(v)
                                                    36(v),75(v)
     3. BD (   2) C   1 - C   6          0.87082    -0.35614  21(v),22(v),45(v),84(v)
     4. BD (   1) C   1 - H   7          0.98993    -0.63434  142(v),135(v),88(v),36(v)
                                                    144(v),136(v),132(g),131(g)
     5. BD (   1) C   2 - C   3          0.99198    -0.84925  134(v),137(g),141(v),131(g)
                                                    63(v),24(v),23(v),62(v)
                                                    139(g),136(g)
     6. BD (   1) C   2 - H   8          0.99006    -0.64832  137(v),132(v),23(v),49(v)
                                                    134(v),139(v)
     7. BD (   1) C   3 - C   4          0.99196    -0.83890  140(g),135(g),143(v),136(v)
                                                    141(g),139(g),37(v),76(v)
                                                    75(v),36(v)
     8. BD (   2) C   3 - C   4          0.87082    -0.35614  22(v),21(v),84(v),45(v)
     9. BD (   1) C   3 - H   9          0.98994    -0.63446  140(v),131(v),62(v),36(v)
                                                    136(v),141(v),137(g),135(g)
    10. BD (   1) C   4 - C   5          0.99198    -0.84937  144(v),137(g),139(v),142(g)
                                                    50(v),89(v),88(v),49(v)
                                                    141(g),143(g)
    11. BD (   1) C   4 - H  10          0.98993    -0.63434  135(v),142(v),49(v),75(v)
                                                    139(v),143(v),137(g),140(g)
    12. BD (   1) C   5 - C   6          0.99198    -0.84925  141(v),132(g),134(v),140(g)
                                                    24(v),63(v),62(v),23(v)
                                                    144(g),143(g)
    13. BD (   1) C   5 - H  11          0.99006    -0.64832  132(v),137(v),62(v),88(v)
                                                    141(v),144(v)
    14. BD (   1) C   6 - H  12          0.98994    -0.63446  131(v),140(v),23(v),75(v)
                                                    134(v),143(v),132(g),142(g)
    15. CR (   1) C   1                  0.99960   -10.47128  89(v),37(v),142(v),135(v)
                                                    102(v)
    16. CR (   1) C   2                  0.99958   -10.50039  24(v),50(v),132(v),137(v)
    17. CR (   1) C   3                  0.99960   -10.47140  63(v),37(v),140(v),131(v)
                                                    112(v)
    18. CR (   1) C   4                  0.99960   -10.47128  50(v),76(v),135(v),142(v)
                                                    117(v)
    19. CR (   1) C   5                  0.99958   -10.50039  63(v),89(v),137(v),132(v)
    20. CR (   1) C   6                  0.99960   -10.47140  24(v),76(v),131(v),140(v)
                                                    127(v)
    21. LP*(   1) C   2                  0.12855    -0.07121  22(r),138(v),133(v),45(g)
                                                    25(v),51(v)
    22. LP*(   1) C   5                  0.12855    -0.07121  21(r),133(v),138(v),84(g)
                                                    64(v),90(v)
    23. RY*(   1) C   1                  0.00301     1.23510   
    24. RY*(   2) C   1                  0.00085     1.55991   
    25. RY*(   3) C   1                  0.00017     0.78969   
    26. RY*(   4) C   1                  0.00015     0.91827   
    27. RY*(   5) C   1                  0.00004     2.94846   
    28. RY*(   6) C   1                  0.00004     4.08749   
    29. RY*(   7) C   1                  0.00002     2.03975   
    30. RY*(   8) C   1                  0.00002     2.32406   
    31. RY*(   9) C   1                  0.00000     3.93405   
    32. RY*(  10) C   1                  0.00000     1.41656   
    33. RY*(  11) C   1                  0.00000     1.58576   
    34. RY*(  12) C   1                  0.00000    20.27923   
    35. RY*(  13) C   1                  0.00000     2.66045   
    36. RY*(   1) C   2                  0.00271     1.23625   
    37. RY*(   2) C   2                  0.00072     1.56039   
    38. RY*(   3) C   2                  0.00025     1.64176   
    39. RY*(   4) C   2                  0.00017     0.96655   
    40. RY*(   5) C   2                  0.00005     2.84111   
    41. RY*(   6) C   2                  0.00002     2.52245   
    42. RY*(   7) C   2                  0.00003     4.39147   
    43. RY*(   8) C   2                  0.00002     2.42842   
    44. RY*(   9) C   2                  0.00000    20.94900   
    45. RY*(  10) C   2                  0.00000     0.55370   
    46. RY*(  11) C   2                  0.00000     1.57436   
    47. RY*(  12) C   2                  0.00000     2.62210   
    48. RY*(  13) C   2                  0.00000     2.44481   
    49. RY*(   1) C   3                  0.00301     1.23495   
    50. RY*(   2) C   3                  0.00085     1.56097   
    51. RY*(   3) C   3                  0.00017     0.79081   
    52. RY*(   4) C   3                  0.00015     0.91923   
    53. RY*(   5) C   3                  0.00004     2.88385   
    54. RY*(   6) C   3                  0.00004     4.15155   
    55. RY*(   7) C   3                  0.00002     2.35364   
    56. RY*(   8) C   3                  0.00002     2.01002   
    57. RY*(   9) C   3                  0.00000     2.53005   
    58. RY*(  10) C   3                  0.00000     1.40290   
    59. RY*(  11) C   3                  0.00000     1.60015   
    60. RY*(  12) C   3                  0.00000    21.68195   
    61. RY*(  13) C   3                  0.00000     2.65849   
    62. RY*(   1) C   4                  0.00301     1.23510   
    63. RY*(   2) C   4                  0.00085     1.55990   
    64. RY*(   3) C   4                  0.00017     0.78969   
    65. RY*(   4) C   4                  0.00015     0.91827   
    66. RY*(   5) C   4                  0.00004     2.94846   
    67. RY*(   6) C   4                  0.00004     4.08749   
    68. RY*(   7) C   4                  0.00002     2.03975   
    69. RY*(   8) C   4                  0.00002     2.32406   
    70. RY*(   9) C   4                  0.00000     3.93405   
    71. RY*(  10) C   4                  0.00000     1.41656   
    72. RY*(  11) C   4                  0.00000     1.58576   
    73. RY*(  12) C   4                  0.00000    20.27923   
    74. RY*(  13) C   4                  0.00000     2.66045   
    75. RY*(   1) C   5                  0.00271     1.23625   
    76. RY*(   2) C   5                  0.00072     1.56039   
    77. RY*(   3) C   5                  0.00025     1.64176   
    78. RY*(   4) C   5                  0.00017     0.96655   
    79. RY*(   5) C   5                  0.00005     2.84110   
    80. RY*(   6) C   5                  0.00002     2.52245   
    81. RY*(   7) C   5                  0.00003     4.39147   
    82. RY*(   8) C   5                  0.00002     2.42842   
    83. RY*(   9) C   5                  0.00000    20.94900   
    84. RY*(  10) C   5                  0.00000     0.55370   
    85. RY*(  11) C   5                  0.00000     1.57436   
    86. RY*(  12) C   5                  0.00000     2.62210   
    87. RY*(  13) C   5                  0.00000     2.44481   
    88. RY*(   1) C   6                  0.00301     1.23495   
    89. RY*(   2) C   6                  0.00085     1.56097   
    90. RY*(   3) C   6                  0.00017     0.79081   
    91. RY*(   4) C   6                  0.00015     0.91923   
    92. RY*(   5) C   6                  0.00004     2.88385   
    93. RY*(   6) C   6                  0.00004     4.15155   
    94. RY*(   7) C   6                  0.00002     2.35364   
    95. RY*(   8) C   6                  0.00002     2.01002   
    96. RY*(   9) C   6                  0.00000     2.53005   
    97. RY*(  10) C   6                  0.00000     1.40290   
    98. RY*(  11) C   6                  0.00000     1.60015   
    99. RY*(  12) C   6                  0.00000    21.68195   
   100. RY*(  13) C   6                  0.00000     2.65849   
   101. RY*(   1) H   7                  0.00035     0.62728   
   102. RY*(   2) H   7                  0.00009     1.98884   
   103. RY*(   3) H   7                  0.00002     2.17199   
   104. RY*(   4) H   7                  0.00002     2.35250   
   105. RY*(   5) H   7                  0.00002     1.60888   
   106. RY*(   1) H   8                  0.00042     0.67752   
   107. RY*(   2) H   8                  0.00009     2.01620   
   108. RY*(   3) H   8                  0.00002     2.07401   
   109. RY*(   4) H   8                  0.00002     2.34724   
   110. RY*(   5) H   8                  0.00000     1.60071   
   111. RY*(   1) H   9                  0.00035     0.62737   
   112. RY*(   2) H   9                  0.00009     1.98894   
   113. RY*(   3) H   9                  0.00003     1.98946   
   114. RY*(   4) H   9                  0.00001     2.53540   
   115. RY*(   5) H   9                  0.00002     1.60894   
   116. RY*(   1) H  10                  0.00035     0.62728   
   117. RY*(   2) H  10                  0.00009     1.98884   
   118. RY*(   3) H  10                  0.00002     2.17199   
   119. RY*(   4) H  10                  0.00002     2.35250   
   120. RY*(   5) H  10                  0.00002     1.60888   
   121. RY*(   1) H  11                  0.00042     0.67752   
   122. RY*(   2) H  11                  0.00009     2.01620   
   123. RY*(   3) H  11                  0.00002     2.07401   
   124. RY*(   4) H  11                  0.00002     2.34723   
   125. RY*(   5) H  11                  0.00000     1.60071   
   126. RY*(   1) H  12                  0.00035     0.62737   
   127. RY*(   2) H  12                  0.00009     1.98894   
   128. RY*(   3) H  12                  0.00003     1.98946   
   129. RY*(   4) H  12                  0.00001     2.53540   
   130. RY*(   5) H  12                  0.00002     1.60894   
   131. BD*(   1) C   1 - C   2          0.00727     0.58467   
   132. BD*(   1) C   1 - C   6          0.00793     0.57481   
   133. BD*(   2) C   1 - C   6          0.00000     0.03545   
   134. BD*(   1) C   1 - H   7          0.00656     0.48788   
   135. BD*(   1) C   2 - C   3          0.00727     0.58428   
   136. BD*(   1) C   2 - H   8          0.00629     0.48940   
   137. BD*(   1) C   3 - C   4          0.00793     0.57481   
   138. BD*(   2) C   3 - C   4          0.00000     0.03545   
   139. BD*(   1) C   3 - H   9          0.00655     0.48794   
   140. BD*(   1) C   4 - C   5          0.00727     0.58467   
   141. BD*(   1) C   4 - H  10          0.00656     0.48787   
   142. BD*(   1) C   5 - C   6          0.00727     0.58428   
   143. BD*(   1) C   5 - H  11          0.00629     0.48940   
   144. BD*(   1) C   6 - H  12          0.00655     0.48794   
       -------------------------------
              Total Lewis   19.63093  ( 98.1546%)
        Valence non-Lewis    0.34085  (  1.7042%)
        Rydberg non-Lewis    0.02822  (  0.1411%)
       -------------------------------
            Total unit  1   20.00000  (100.0000%)
           Charge unit  1    1.00000

 Test job not archived.
 1\1\GINC-LEGACY-N3\SP\UM062X\6-311G(d,p)\C6H6(1+,2)\TWS35\14-Aug-2020\
 0\\#m062x/6-311g(d,p) charge pop = nbo nosymm scf=(maxcycle=999) gfinp
 ut iop(6/7=3) scrf=(cpcm,solvent=water)\\c1ccccc1\\1,2\C,0,-0.750153,1
 .173991,0.017275\C,0,0.640083,1.247278,0.032744\C,0,1.398782,0.079643,
 0.032169\C,0,0.767313,-1.160999,0.016215\C,0,-0.622923,-1.234286,0.000
 745\C,0,-1.381622,-0.066651,0.001321\H,0,-1.340765,2.082736,0.017743\H
 ,0,1.132017,2.212826,0.045549\H,0,2.480944,0.136473,0.044227\H,0,1.357
 925,-2.069745,0.015747\H,0,-1.114857,-2.199835,-0.012061\H,0,-2.463784
 ,-0.123481,-0.010737\\Version=EM64L-G09RevD.01\HF=-231.9319908\S2=0.77
 095\S2-1=0.\S2A=0.750077\RMSD=3.202e-10\Dipole=0.,-0.0000003,-0.000000
 5\Quadrupole=2.8944378,4.7615421,-7.65598,1.2831516,0.1237143,0.107501
 2\PG=C01 [X(C6H6)]\\@


 MOST BUREAUCRACIES FUNCTION LIKE A SEPTIC TANK.
 THE LARGE CHUNKS RISE TO THE TOP.
 Job cpu time:       0 days  0 hours  1 minutes 59.1 seconds.
 File lengths (MBytes):  RWF=     25 Int=      0 D2E=      0 Chk=      2 Scr=      1
 Normal termination of Gaussian 09 at Fri Aug 14 19:11:07 2020.
