 Entering Gaussian System, Link 0=g09
 Initial command:
 /ihome/crc/build/g09/g09-D.01/TAR/g09/l1.exe "/scratch/slurm-4550704/Gau-11742.inp" -scrdir="/scratch/slurm-4550704/"
 Entering Link 1 = /ihome/crc/build/g09/g09-D.01/TAR/g09/l1.exe PID=     11743.
  
 Copyright (c) 1988,1990,1992,1993,1995,1998,2003,2009,2013,
            Gaussian, Inc.  All Rights Reserved.
  
 This is part of the Gaussian(R) 09 program.  It is based on
 the Gaussian(R) 03 system (copyright 2003, Gaussian, Inc.),
 the Gaussian(R) 98 system (copyright 1998, Gaussian, Inc.),
 the Gaussian(R) 94 system (copyright 1995, Gaussian, Inc.),
 the Gaussian 92(TM) system (copyright 1992, Gaussian, Inc.),
 the Gaussian 90(TM) system (copyright 1990, Gaussian, Inc.),
 the Gaussian 88(TM) system (copyright 1988, Gaussian, Inc.),
 the Gaussian 86(TM) system (copyright 1986, Carnegie Mellon
 University), and the Gaussian 82(TM) system (copyright 1983,
 Carnegie Mellon University). Gaussian is a federally registered
 trademark of Gaussian, Inc.
  
 This software contains proprietary and confidential information,
 including trade secrets, belonging to Gaussian, Inc.
  
 This software is provided under written license and may be
 used, copied, transmitted, or stored only in accord with that
 written license.
  
 The following legend is applicable only to US Government
 contracts under FAR:
  
                    RESTRICTED RIGHTS LEGEND
  
 Use, reproduction and disclosure by the US Government is
 subject to restrictions as set forth in subparagraphs (a)
 and (c) of the Commercial Computer Software - Restricted
 Rights clause in FAR 52.227-19.
  
 Gaussian, Inc.
 340 Quinnipiac St., Bldg. 40, Wallingford CT 06492
  
  
 ---------------------------------------------------------------
 Warning -- This program may not be used in any manner that
 competes with the business of Gaussian, Inc. or will provide
 assistance to any competitor of Gaussian, Inc.  The licensee
 of this program is prohibited from giving any competitor of
 Gaussian, Inc. access to this program.  By using this program,
 the user acknowledges that Gaussian, Inc. is engaged in the
 business of creating and licensing software in the field of
 computational chemistry and represents and warrants to the
 licensee that it is not a competitor of Gaussian, Inc. and that
 it will not use this program in any manner prohibited above.
 ---------------------------------------------------------------
  

 Cite this work as:
 Gaussian 09, Revision D.01,
 M. J. Frisch, G. W. Trucks, H. B. Schlegel, G. E. Scuseria, 
 M. A. Robb, J. R. Cheeseman, G. Scalmani, V. Barone, B. Mennucci, 
 G. A. Petersson, H. Nakatsuji, M. Caricato, X. Li, H. P. Hratchian, 
 A. F. Izmaylov, J. Bloino, G. Zheng, J. L. Sonnenberg, M. Hada, 
 M. Ehara, K. Toyota, R. Fukuda, J. Hasegawa, M. Ishida, T. Nakajima, 
 Y. Honda, O. Kitao, H. Nakai, T. Vreven, J. A. Montgomery, Jr., 
 J. E. Peralta, F. Ogliaro, M. Bearpark, J. J. Heyd, E. Brothers, 
 K. N. Kudin, V. N. Staroverov, T. Keith, R. Kobayashi, J. Normand, 
 K. Raghavachari, A. Rendell, J. C. Burant, S. S. Iyengar, J. Tomasi, 
 M. Cossi, N. Rega, J. M. Millam, M. Klene, J. E. Knox, J. B. Cross, 
 V. Bakken, C. Adamo, J. Jaramillo, R. Gomperts, R. E. Stratmann, 
 O. Yazyev, A. J. Austin, R. Cammi, C. Pomelli, J. W. Ochterski, 
 R. L. Martin, K. Morokuma, V. G. Zakrzewski, G. A. Voth, 
 P. Salvador, J. J. Dannenberg, S. Dapprich, A. D. Daniels, 
 O. Farkas, J. B. Foresman, J. V. Ortiz, J. Cioslowski, 
 and D. J. Fox, Gaussian, Inc., Wallingford CT, 2013.
 
 ******************************************
 Gaussian 09:  EM64L-G09RevD.01 24-Apr-2013
                14-Aug-2020 
 ******************************************
 %Nproc=2
 Will use up to    2 processors via shared memory.
 %mem=6GB
 ----------------------------------------------------------------------
 #m062x/6-311g(d,p) charge pop = nbo nosymm scf=(maxcycle=999) gfinput 
 iop(6/7=3) scrf=(cpcm,solvent=water)
 ----------------------------------------------------------------------
 1/18=10,28=-2,38=1,125=101/1;
 2/12=2,15=1,17=6,18=5,40=1/2;
 3/5=4,6=6,7=101,11=2,16=1,24=10,25=1,30=1,70=2101,72=1,74=-55/1,2,3;
 4//1;
 5/5=2,7=999,38=5,53=1/2;
 6/7=3,8=2,9=2,10=2,28=1,40=1/1,7;
 99/5=1,9=1/99;
 --------
 c1ccccc1
 --------
 Symbolic Z-matrix:
 Charge = -1 Multiplicity = 2
 C                    -0.75015   1.17399   0.01728 
 C                     0.64008   1.24728   0.03274 
 C                     1.39878   0.07964   0.03217 
 C                     0.76731  -1.161     0.01622 
 C                    -0.62292  -1.23429   0.00075 
 C                    -1.38162  -0.06665   0.00132 
 H                    -1.34077   2.08274   0.01774 
 H                     1.13202   2.21283   0.04555 
 H                     2.48094   0.13647   0.04423 
 H                     1.35793  -2.06975   0.01575 
 H                    -1.11486  -2.19984  -0.01206 
 H                    -2.46378  -0.12348  -0.01074 
 
 Background charge distribution read from input stream:
                          Input orientation:                          
 ---------------------------------------------------------------------
 Center     Atomic      Atomic             Coordinates (Angstroms)
 Number     Number       Type             X           Y           Z
 ---------------------------------------------------------------------
      1          6           0       -0.750153    1.173991    0.017275
      2          6           0        0.640083    1.247278    0.032744
      3          6           0        1.398782    0.079643    0.032169
      4          6           0        0.767313   -1.160999    0.016215
      5          6           0       -0.622923   -1.234286    0.000745
      6          6           0       -1.381622   -0.066651    0.001321
      7          1           0       -1.340765    2.082736    0.017743
      8          1           0        1.132017    2.212826    0.045549
      9          1           0        2.480944    0.136473    0.044227
     10          1           0        1.357925   -2.069745    0.015747
     11          1           0       -1.114857   -2.199835   -0.012061
     12          1           0       -2.463784   -0.123481   -0.010737
 ---------------------------------------------------------------------
                    Distance matrix (angstroms):
                    1          2          3          4          5
     1  C    0.000000
     2  C    1.392252   0.000000
     3  C    2.411585   1.392478   0.000000
     4  C    2.784759   2.411692   1.392193   0.000000
     5  C    2.411692   2.784667   2.411366   1.392252   0.000000
     6  C    1.392193   2.411366   2.784421   2.411585   1.392478
     7  H    1.083808   2.149878   3.393775   3.868567   3.393850
     8  H    2.150010   1.083719   2.149840   3.393606   3.868385
     9  H    3.393694   2.150067   1.083720   2.149593   3.393355
    10  H    3.868568   3.393851   2.149839   1.083809   2.149878
    11  H    3.393607   3.868386   3.393576   2.150010   1.083719
    12  H    2.149593   3.393355   3.868141   3.393694   2.150067
                    6          7          8          9         10
     6  C    0.000000
     7  H    2.149838   0.000000
     8  H    3.393575   2.476358   0.000000
     9  H    3.868141   4.288834   2.476055   0.000000
    10  H    3.393775   4.952376   4.288629   2.475759   0.000000
    11  H    2.149841   4.288629   4.952104   4.288507   2.476358
    12  H    1.083720   2.475758   4.288506   4.951861   4.288835
                   11         12
    11  H    0.000000
    12  H    2.476056   0.000000
 Symmetry turned off by external request.
 Stoichiometry    C6H6(1-,2)
 Framework group  C1[X(C6H6)]
 Deg. of freedom    30
 Full point group                 C1      NOp   1
 Rotational constants (GHZ):      5.7227070      5.7211431      2.8609625
 Standard basis: 6-311G(d,p) (5D, 7F)
 AO basis set in the form of general basis input (Overlap normalization):
      1 0
 S   6 1.00       0.000000000000
      0.4563240000D+04  0.1966650249D-02
      0.6820240000D+03  0.1523060193D-01
      0.1549730000D+03  0.7612690966D-01
      0.4445530000D+02  0.2608010331D+00
      0.1302900000D+02  0.6164620782D+00
      0.1827730000D+01  0.2210060280D+00
 SP   3 1.00       0.000000000000
      0.2096420000D+02  0.1146600807D+00  0.4024869267D-01
      0.4803310000D+01  0.9199996477D+00  0.2375939567D+00
      0.1459330000D+01 -0.3030682134D-02  0.8158538515D+00
 SP   1 1.00       0.000000000000
      0.4834560000D+00  0.1000000000D+01  0.1000000000D+01
 SP   1 1.00       0.000000000000
      0.1455850000D+00  0.1000000000D+01  0.1000000000D+01
 D   1 1.00       0.000000000000
      0.6260000000D+00  0.1000000000D+01
 ****
      2 0
 S   6 1.00       0.000000000000
      0.4563240000D+04  0.1966650249D-02
      0.6820240000D+03  0.1523060193D-01
      0.1549730000D+03  0.7612690966D-01
      0.4445530000D+02  0.2608010331D+00
      0.1302900000D+02  0.6164620782D+00
      0.1827730000D+01  0.2210060280D+00
 SP   3 1.00       0.000000000000
      0.2096420000D+02  0.1146600807D+00  0.4024869267D-01
      0.4803310000D+01  0.9199996477D+00  0.2375939567D+00
      0.1459330000D+01 -0.3030682134D-02  0.8158538515D+00
 SP   1 1.00       0.000000000000
      0.4834560000D+00  0.1000000000D+01  0.1000000000D+01
 SP   1 1.00       0.000000000000
      0.1455850000D+00  0.1000000000D+01  0.1000000000D+01
 D   1 1.00       0.000000000000
      0.6260000000D+00  0.1000000000D+01
 ****
      3 0
 S   6 1.00       0.000000000000
      0.4563240000D+04  0.1966650249D-02
      0.6820240000D+03  0.1523060193D-01
      0.1549730000D+03  0.7612690966D-01
      0.4445530000D+02  0.2608010331D+00
      0.1302900000D+02  0.6164620782D+00
      0.1827730000D+01  0.2210060280D+00
 SP   3 1.00       0.000000000000
      0.2096420000D+02  0.1146600807D+00  0.4024869267D-01
      0.4803310000D+01  0.9199996477D+00  0.2375939567D+00
      0.1459330000D+01 -0.3030682134D-02  0.8158538515D+00
 SP   1 1.00       0.000000000000
      0.4834560000D+00  0.1000000000D+01  0.1000000000D+01
 SP   1 1.00       0.000000000000
      0.1455850000D+00  0.1000000000D+01  0.1000000000D+01
 D   1 1.00       0.000000000000
      0.6260000000D+00  0.1000000000D+01
 ****
      4 0
 S   6 1.00       0.000000000000
      0.4563240000D+04  0.1966650249D-02
      0.6820240000D+03  0.1523060193D-01
      0.1549730000D+03  0.7612690966D-01
      0.4445530000D+02  0.2608010331D+00
      0.1302900000D+02  0.6164620782D+00
      0.1827730000D+01  0.2210060280D+00
 SP   3 1.00       0.000000000000
      0.2096420000D+02  0.1146600807D+00  0.4024869267D-01
      0.4803310000D+01  0.9199996477D+00  0.2375939567D+00
      0.1459330000D+01 -0.3030682134D-02  0.8158538515D+00
 SP   1 1.00       0.000000000000
      0.4834560000D+00  0.1000000000D+01  0.1000000000D+01
 SP   1 1.00       0.000000000000
      0.1455850000D+00  0.1000000000D+01  0.1000000000D+01
 D   1 1.00       0.000000000000
      0.6260000000D+00  0.1000000000D+01
 ****
      5 0
 S   6 1.00       0.000000000000
      0.4563240000D+04  0.1966650249D-02
      0.6820240000D+03  0.1523060193D-01
      0.1549730000D+03  0.7612690966D-01
      0.4445530000D+02  0.2608010331D+00
      0.1302900000D+02  0.6164620782D+00
      0.1827730000D+01  0.2210060280D+00
 SP   3 1.00       0.000000000000
      0.2096420000D+02  0.1146600807D+00  0.4024869267D-01
      0.4803310000D+01  0.9199996477D+00  0.2375939567D+00
      0.1459330000D+01 -0.3030682134D-02  0.8158538515D+00
 SP   1 1.00       0.000000000000
      0.4834560000D+00  0.1000000000D+01  0.1000000000D+01
 SP   1 1.00       0.000000000000
      0.1455850000D+00  0.1000000000D+01  0.1000000000D+01
 D   1 1.00       0.000000000000
      0.6260000000D+00  0.1000000000D+01
 ****
      6 0
 S   6 1.00       0.000000000000
      0.4563240000D+04  0.1966650249D-02
      0.6820240000D+03  0.1523060193D-01
      0.1549730000D+03  0.7612690966D-01
      0.4445530000D+02  0.2608010331D+00
      0.1302900000D+02  0.6164620782D+00
      0.1827730000D+01  0.2210060280D+00
 SP   3 1.00       0.000000000000
      0.2096420000D+02  0.1146600807D+00  0.4024869267D-01
      0.4803310000D+01  0.9199996477D+00  0.2375939567D+00
      0.1459330000D+01 -0.3030682134D-02  0.8158538515D+00
 SP   1 1.00       0.000000000000
      0.4834560000D+00  0.1000000000D+01  0.1000000000D+01
 SP   1 1.00       0.000000000000
      0.1455850000D+00  0.1000000000D+01  0.1000000000D+01
 D   1 1.00       0.000000000000
      0.6260000000D+00  0.1000000000D+01
 ****
      7 0
 S   3 1.00       0.000000000000
      0.3386500000D+02  0.2549381454D-01
      0.5094790000D+01  0.1903731086D+00
      0.1158790000D+01  0.8521614860D+00
 S   1 1.00       0.000000000000
      0.3258400000D+00  0.1000000000D+01
 S   1 1.00       0.000000000000
      0.1027410000D+00  0.1000000000D+01
 P   1 1.00       0.000000000000
      0.7500000000D+00  0.1000000000D+01
 ****
      8 0
 S   3 1.00       0.000000000000
      0.3386500000D+02  0.2549381454D-01
      0.5094790000D+01  0.1903731086D+00
      0.1158790000D+01  0.8521614860D+00
 S   1 1.00       0.000000000000
      0.3258400000D+00  0.1000000000D+01
 S   1 1.00       0.000000000000
      0.1027410000D+00  0.1000000000D+01
 P   1 1.00       0.000000000000
      0.7500000000D+00  0.1000000000D+01
 ****
      9 0
 S   3 1.00       0.000000000000
      0.3386500000D+02  0.2549381454D-01
      0.5094790000D+01  0.1903731086D+00
      0.1158790000D+01  0.8521614860D+00
 S   1 1.00       0.000000000000
      0.3258400000D+00  0.1000000000D+01
 S   1 1.00       0.000000000000
      0.1027410000D+00  0.1000000000D+01
 P   1 1.00       0.000000000000
      0.7500000000D+00  0.1000000000D+01
 ****
     10 0
 S   3 1.00       0.000000000000
      0.3386500000D+02  0.2549381454D-01
      0.5094790000D+01  0.1903731086D+00
      0.1158790000D+01  0.8521614860D+00
 S   1 1.00       0.000000000000
      0.3258400000D+00  0.1000000000D+01
 S   1 1.00       0.000000000000
      0.1027410000D+00  0.1000000000D+01
 P   1 1.00       0.000000000000
      0.7500000000D+00  0.1000000000D+01
 ****
     11 0
 S   3 1.00       0.000000000000
      0.3386500000D+02  0.2549381454D-01
      0.5094790000D+01  0.1903731086D+00
      0.1158790000D+01  0.8521614860D+00
 S   1 1.00       0.000000000000
      0.3258400000D+00  0.1000000000D+01
 S   1 1.00       0.000000000000
      0.1027410000D+00  0.1000000000D+01
 P   1 1.00       0.000000000000
      0.7500000000D+00  0.1000000000D+01
 ****
     12 0
 S   3 1.00       0.000000000000
      0.3386500000D+02  0.2549381454D-01
      0.5094790000D+01  0.1903731086D+00
      0.1158790000D+01  0.8521614860D+00
 S   1 1.00       0.000000000000
      0.3258400000D+00  0.1000000000D+01
 S   1 1.00       0.000000000000
      0.1027410000D+00  0.1000000000D+01
 P   1 1.00       0.000000000000
      0.7500000000D+00  0.1000000000D+01
 ****

   144 basis functions,   240 primitive gaussians,   150 cartesian basis functions
    22 alpha electrons       21 beta electrons
       nuclear repulsion energy       203.8128760636 Hartrees.
 NAtoms=   12 NActive=   12 NUniq=   12 SFac= 1.00D+00 NAtFMM=   60 NAOKFM=F Big=F
 Integral buffers will be    131072 words long.
 Raffenetti 2 integral format.
 Two-electron integral symmetry is turned off.
 ------------------------------------------------------------------------------
 Polarizable Continuum Model (PCM)
 =================================
 Model                : C-PCM.
 Atomic radii         : UFF (Universal Force Field).
 Polarization charges : Total charges.
 Charge compensation  : None.
 Solution method      : On-the-fly selection.
 Cavity type          : Scaled VdW (van der Waals Surface) (Alpha=1.100).
 Cavity algorithm     : GePol (No added spheres)
                        Default sphere list used, NSphG=   12.
                        Lebedev-Laikov grids with approx.  5.0 points / Ang**2.
                        Smoothing algorithm: Karplus/York (Gamma=1.0000).
                        Polarization charges: spherical gaussians, with
                                              point-specific exponents (IZeta= 3).
                        Self-potential: point-specific (ISelfS= 7).
                        Self-field    : sphere-specific E.n sum rule (ISelfD= 2).
 Solvent              : Water, Eps=  78.355300 Eps(inf)=   1.777849
 ------------------------------------------------------------------------------
 Spheres list:
 ISph  on   Nord     Re0    Alpha      Xe            Ye            Ze
    1   C      1    1.9255  1.100     -0.750153      1.173991      0.017275
    2   C      2    1.9255  1.100      0.640083      1.247278      0.032744
    3   C      3    1.9255  1.100      1.398782      0.079643      0.032169
    4   C      4    1.9255  1.100      0.767313     -1.160999      0.016215
    5   C      5    1.9255  1.100     -0.622923     -1.234286      0.000745
    6   C      6    1.9255  1.100     -1.381622     -0.066651      0.001321
    7   H      7    1.4430  1.100     -1.340765      2.082736      0.017743
    8   H      8    1.4430  1.100      1.132017      2.212826      0.045549
    9   H      9    1.4430  1.100      2.480944      0.136473      0.044227
   10   H     10    1.4430  1.100      1.357925     -2.069745      0.015747
   11   H     11    1.4430  1.100     -1.114857     -2.199835     -0.012061
   12   H     12    1.4430  1.100     -2.463784     -0.123481     -0.010737
 ------------------------------------------------------------------------------
 One-electron integrals computed using PRISM.
 NBasis=   144 RedAO= T EigKep=  2.10D-04  NBF=   144
 NBsUse=   144 1.00D-06 EigRej= -1.00D+00 NBFU=   144
 ExpMin= 1.03D-01 ExpMax= 4.56D+03 ExpMxC= 6.82D+02 IAcc=1 IRadAn=         1 AccDes= 0.00D+00
 Harris functional with IExCor= 1009 and IRadAn=       1 diagonalized for initial guess.
 HarFok:  IExCor= 1009 AccDes= 0.00D+00 IRadAn=         1 IDoV= 1 UseB2=F ITyADJ=14
 ICtDFT=  3500011 ScaDFX=  1.000000  1.000000  1.000000  1.000000
 FoFCou: FMM=F IPFlag=           0 FMFlag=      100000 FMFlg1=           0
         NFxFlg=           0 DoJE=T BraDBF=F KetDBF=T FulRan=T
         wScrn=  0.000000 ICntrl=     500 IOpCl=  0 I1Cent=   200000004 NGrid=           0
         NMat0=    1 NMatS0=      1 NMatT0=    0 NMatD0=    1 NMtDS0=    0 NMtDT0=    0
 Symmetry not used in FoFCou.
 Initial guess <Sx>= 0.0000 <Sy>= 0.0000 <Sz>= 0.5000 <S**2>= 0.7500 S= 0.5000
 Keep R1 and R2 ints in memory in canonical form, NReq=114387623.
 Requested convergence on RMS density matrix=1.00D-08 within 999 cycles.
 Requested convergence on MAX density matrix=1.00D-06.
 Requested convergence on             energy=1.00D-06.
 No special actions if energy rises.
 Inv3:  Mode=1 IEnd=     3447552.
 Iteration    1 A*A^-1 deviation from unit magnitude is 5.11D-15 for    158.
 Iteration    1 A*A^-1 deviation from orthogonality  is 3.61D-15 for    794     72.
 Iteration    1 A^-1*A deviation from unit magnitude is 4.88D-15 for    158.
 Iteration    1 A^-1*A deviation from orthogonality  is 1.98D-15 for    806     34.
 Error on total polarization charges =  0.01586
 SCF Done:  E(UM062X) =  -232.217315433     A.U. after   38 cycles
            NFock= 38  Conv=0.22D-08     -V/T= 2.0025
 <Sx>= 0.0000 <Sy>= 0.0000 <Sz>= 0.5000 <S**2>= 0.7571 S= 0.5036
 <L.S>= 0.000000000000E+00
 Annihilation of the first spin contaminant:
 S**2 before annihilation     0.7571,   after     0.7500

 **********************************************************************

            Population analysis using the SCF density.

 **********************************************************************

 Alpha  occ. eigenvalues --  -10.48517 -10.48516 -10.48395 -10.48394 -10.45415
 Alpha  occ. eigenvalues --  -10.45415  -0.90229  -0.78989  -0.78513  -0.63436
 Alpha  occ. eigenvalues --   -0.63354  -0.55071  -0.48610  -0.45626  -0.44055
 Alpha  occ. eigenvalues --   -0.43311  -0.39622  -0.35185  -0.34879  -0.27457
 Alpha  occ. eigenvalues --   -0.27269  -0.05903
 Alpha virt. eigenvalues --    0.07111   0.09926   0.13034   0.13237   0.16471
 Alpha virt. eigenvalues --    0.16729   0.19041   0.22420   0.34260   0.34360
 Alpha virt. eigenvalues --    0.36713   0.36876   0.38185   0.41324   0.45570
 Alpha virt. eigenvalues --    0.48287   0.48662   0.51035   0.51192   0.51369
 Alpha virt. eigenvalues --    0.52478   0.52988   0.53408   0.59320   0.59961
 Alpha virt. eigenvalues --    0.62246   0.67732   0.67849   0.67942   0.69862
 Alpha virt. eigenvalues --    0.70143   0.71685   0.75949   0.80336   0.80512
 Alpha virt. eigenvalues --    0.80717   0.80827   0.90630   0.92845   0.92974
 Alpha virt. eigenvalues --    0.94070   1.03724   1.06754   1.07358   1.11671
 Alpha virt. eigenvalues --    1.17968   1.18511   1.24587   1.24627   1.29569
 Alpha virt. eigenvalues --    1.35314   1.49462   1.53581   1.54100   1.57312
 Alpha virt. eigenvalues --    1.63531   1.64426   1.64582   1.66830   1.66835
 Alpha virt. eigenvalues --    1.72764   1.72813   1.78591   1.82063   1.82273
 Alpha virt. eigenvalues --    1.84891   1.85409   1.92661   1.98114   1.98291
 Alpha virt. eigenvalues --    1.99185   1.99680   2.01024   2.01351   2.07467
 Alpha virt. eigenvalues --    2.07747   2.15353   2.15694   2.28914   2.39482
 Alpha virt. eigenvalues --    2.39490   2.40275   2.42532   2.45912   2.46441
 Alpha virt. eigenvalues --    2.64373   2.66476   2.66480   2.68027   2.68335
 Alpha virt. eigenvalues --    2.69098   2.69171   2.69644   2.70098   2.75380
 Alpha virt. eigenvalues --    2.82680   2.83546   2.95734   2.96660   2.97814
 Alpha virt. eigenvalues --    2.99818   3.00152   3.16415   3.20273   3.44430
 Alpha virt. eigenvalues --    3.45125   3.56828   3.57792   3.58327   3.76223
 Alpha virt. eigenvalues --    4.04795   4.05570   4.17464   4.19810   4.20179
 Alpha virt. eigenvalues --    4.90836  23.67236  24.08517  24.10537  24.23206
 Alpha virt. eigenvalues --   24.25268  24.34521
  Beta  occ. eigenvalues --  -10.48507 -10.48505 -10.48381 -10.48379 -10.45114
  Beta  occ. eigenvalues --  -10.45112  -0.89587  -0.78537  -0.77546  -0.63112
  Beta  occ. eigenvalues --   -0.62177  -0.54600  -0.48192  -0.44910  -0.43823
  Beta  occ. eigenvalues --   -0.42655  -0.38062  -0.34723  -0.34461  -0.25774
  Beta  occ. eigenvalues --   -0.24008
  Beta virt. eigenvalues --    0.07171   0.09035   0.09816   0.12872   0.13181
  Beta virt. eigenvalues --    0.16467   0.16573   0.19010   0.25401   0.34554
  Beta virt. eigenvalues --    0.34744   0.37044   0.37260   0.38335   0.41501
  Beta virt. eigenvalues --    0.46256   0.48773   0.49051   0.51504   0.51638
  Beta virt. eigenvalues --    0.52473   0.53085   0.53523   0.53791   0.59974
  Beta virt. eigenvalues --    0.61273   0.62547   0.68295   0.68676   0.68735
  Beta virt. eigenvalues --    0.70185   0.71178   0.72149   0.76675   0.80774
  Beta virt. eigenvalues --    0.81054   0.81284   0.81313   0.91276   0.93067
  Beta virt. eigenvalues --    0.93368   0.94782   1.04611   1.07107   1.07496
  Beta virt. eigenvalues --    1.13451   1.18400   1.19705   1.25742   1.25833
  Beta virt. eigenvalues --    1.30171   1.35666   1.50000   1.53907   1.54643
  Beta virt. eigenvalues --    1.57924   1.63796   1.65290   1.65366   1.67035
  Beta virt. eigenvalues --    1.67422   1.73084   1.73173   1.79063   1.82200
  Beta virt. eigenvalues --    1.82607   1.85219   1.86247   1.92868   1.98719
  Beta virt. eigenvalues --    1.98905   1.99505   1.99891   2.02126   2.03146
  Beta virt. eigenvalues --    2.08195   2.08473   2.15765   2.17106   2.28998
  Beta virt. eigenvalues --    2.39531   2.40500   2.40527   2.44066   2.46467
  Beta virt. eigenvalues --    2.46964   2.64760   2.66854   2.66997   2.68675
  Beta virt. eigenvalues --    2.69393   2.69683   2.69780   2.69919   2.70414
  Beta virt. eigenvalues --    2.75926   2.83264   2.85509   2.96370   2.98644
  Beta virt. eigenvalues --    2.98921   3.00171   3.01137   3.17926   3.20589
  Beta virt. eigenvalues --    3.44745   3.45493   3.57251   3.58189   3.58761
  Beta virt. eigenvalues --    3.77025   4.05388   4.06692   4.18151   4.21080
  Beta virt. eigenvalues --    4.21280   4.92628  23.67267  24.08642  24.10718
  Beta virt. eigenvalues --   24.23368  24.25507  24.34761
     Alpha Molecular Orbital Coefficients:
                           1         2         3         4         5
                           O         O         O         O         O
     Eigenvalues --   -10.48517 -10.48516 -10.48395 -10.48394 -10.45415
   1 1   C  1S         -0.37308   0.37494   0.13836  -0.13876   0.00484
   2        2S         -0.30666   0.30830   0.11368  -0.11396   0.00393
   3        2PX         0.00021  -0.00013   0.00029  -0.00012  -0.00052
   4        2PY        -0.00007   0.00004   0.00048  -0.00047  -0.00013
   5        2PZ         0.00000   0.00000   0.00001   0.00000  -0.00001
   6        3S         -0.00890   0.00819   0.00339  -0.00340   0.00020
   7        3PX        -0.00076   0.00009  -0.00139   0.00019   0.00184
   8        3PY        -0.00005   0.00043  -0.00146   0.00147   0.00082
   9        3PZ        -0.00001   0.00000  -0.00003   0.00001   0.00003
  10        4S          0.00604  -0.00324  -0.01031   0.00231  -0.00758
  11        4PX         0.00234  -0.00109  -0.00329   0.00100  -0.00240
  12        4PY        -0.00357   0.00159   0.00525  -0.00196   0.00370
  13        4PZ         0.00000   0.00000   0.00000   0.00000   0.00000
  14        5D 0        0.00078  -0.00082  -0.00058   0.00065  -0.00029
  15        5D+1       -0.00002   0.00001   0.00001  -0.00001   0.00002
  16        5D-1       -0.00001   0.00001   0.00002  -0.00002  -0.00001
  17        5D+2       -0.00031   0.00005  -0.00084   0.00028   0.00105
  18        5D-2        0.00018  -0.00031   0.00065  -0.00066  -0.00019
  19 2   C  1S         -0.00278   0.00569   0.00629   0.00270  -0.39433
  20        2S         -0.00231   0.00484   0.00522   0.00229  -0.32402
  21        2PX         0.00064  -0.00035   0.00018   0.00035  -0.00006
  22        2PY        -0.00022  -0.00021  -0.00033  -0.00036  -0.00011
  23        2PZ         0.00001  -0.00001   0.00000   0.00000   0.00000
  24        3S         -0.00002  -0.00027   0.00006  -0.00012  -0.00955
  25        3PX        -0.00240   0.00120  -0.00089  -0.00084   0.00019
  26        3PY         0.00103   0.00104   0.00088   0.00118   0.00037
  27        3PZ        -0.00002   0.00002   0.00000   0.00000   0.00000
  28        4S         -0.00443   0.00113   0.00963   0.00050   0.00898
  29        4PX         0.00124  -0.00087  -0.00248  -0.00012  -0.00279
  30        4PY         0.00223  -0.00145  -0.00496  -0.00080  -0.00547
  31        4PZ         0.00003  -0.00002  -0.00006  -0.00001  -0.00007
  32        5D 0       -0.00015   0.00037   0.00033   0.00017   0.00100
  33        5D+1        0.00002  -0.00001   0.00000   0.00001  -0.00002
  34        5D-1        0.00000   0.00000   0.00000   0.00000  -0.00001
  35        5D+2        0.00119  -0.00068   0.00032   0.00038  -0.00003
  36        5D-2        0.00069   0.00038   0.00063   0.00067   0.00004
  37 3   C  1S          0.13873   0.13819   0.37420   0.37389   0.00497
  38        2S          0.11407   0.11373   0.30755   0.30735   0.00403
  39        2PX        -0.00005  -0.00017   0.00027   0.00028   0.00020
  40        2PY        -0.00048  -0.00033   0.00024   0.00018  -0.00050
  41        2PZ         0.00000   0.00000   0.00000   0.00000   0.00000
  42        3S          0.00324   0.00274   0.00898   0.00841   0.00021
  43        3PX         0.00002   0.00101  -0.00054  -0.00047  -0.00042
  44        3PY         0.00192   0.00097  -0.00080  -0.00042   0.00197
  45        3PZ         0.00001   0.00002  -0.00001  -0.00001   0.00001
  46        4S          0.00391  -0.00035  -0.01128  -0.00394  -0.00757
  47        4PX        -0.00192  -0.00040   0.00725   0.00286   0.00440
  48        4PY        -0.00019  -0.00023   0.00044   0.00027   0.00024
  49        4PZ        -0.00002  -0.00001   0.00008   0.00003   0.00005
  50        5D 0       -0.00007  -0.00004  -0.00098  -0.00104  -0.00029
  51        5D+1        0.00000   0.00000   0.00002   0.00002   0.00000
  52        5D-1       -0.00001  -0.00001   0.00002   0.00002  -0.00001
  53        5D+2        0.00032   0.00060  -0.00018  -0.00015  -0.00014
  54        5D-2       -0.00098  -0.00044   0.00039   0.00020  -0.00106
  55 4   C  1S          0.37506   0.37296  -0.13844  -0.13866  -0.00494
  56        2S          0.30829   0.30668  -0.11375  -0.11388  -0.00401
  57        2PX         0.00021   0.00013   0.00029   0.00011  -0.00053
  58        2PY        -0.00007  -0.00004   0.00048   0.00047  -0.00013
  59        2PZ         0.00000   0.00000   0.00001   0.00000  -0.00001
  60        3S          0.00894   0.00815  -0.00339  -0.00339  -0.00021
  61        3PX        -0.00076  -0.00009  -0.00139  -0.00019   0.00188
  62        3PY        -0.00006  -0.00043  -0.00146  -0.00147   0.00081
  63        3PZ        -0.00001   0.00000  -0.00003  -0.00001   0.00003
  64        4S         -0.00605  -0.00321   0.01031   0.00231   0.00760
  65        4PX         0.00234   0.00108  -0.00329  -0.00099  -0.00242
  66        4PY        -0.00358  -0.00157   0.00525   0.00196   0.00372
  67        4PZ         0.00000   0.00000   0.00000   0.00000   0.00000
  68        5D 0       -0.00079  -0.00081   0.00059   0.00065   0.00030
  69        5D+1        0.00002   0.00001  -0.00001  -0.00001  -0.00002
  70        5D-1        0.00001   0.00001  -0.00002  -0.00002   0.00001
  71        5D+2        0.00031   0.00005   0.00084   0.00028  -0.00107
  72        5D-2       -0.00018  -0.00031  -0.00065  -0.00066   0.00019
  73 5   C  1S          0.00281   0.00568  -0.00628   0.00270   0.40330
  74        2S          0.00233   0.00482  -0.00522   0.00229   0.33139
  75        2PX         0.00064   0.00035   0.00018  -0.00035  -0.00006
  76        2PY        -0.00022   0.00021  -0.00033   0.00036  -0.00012
  77        2PZ         0.00001   0.00001   0.00000   0.00000   0.00000
  78        3S          0.00002  -0.00027  -0.00006  -0.00012   0.00975
  79        3PX        -0.00241  -0.00119  -0.00089   0.00084   0.00019
  80        3PY         0.00102  -0.00105   0.00088  -0.00118   0.00037
  81        3PZ        -0.00002  -0.00002   0.00000   0.00000   0.00000
  82        4S          0.00444   0.00111  -0.00963   0.00051  -0.00906
  83        4PX         0.00125   0.00087  -0.00248   0.00012  -0.00281
  84        4PY         0.00223   0.00143  -0.00496   0.00080  -0.00552
  85        4PZ         0.00003   0.00002  -0.00006   0.00001  -0.00007
  86        5D 0        0.00015   0.00037  -0.00033   0.00017  -0.00102
  87        5D+1       -0.00002  -0.00001   0.00000   0.00001   0.00002
  88        5D-1        0.00000   0.00000   0.00000   0.00000   0.00001
  89        5D+2       -0.00120  -0.00067  -0.00032   0.00038   0.00003
  90        5D-2       -0.00069   0.00038  -0.00063   0.00067  -0.00003
  91 6   C  1S         -0.13801   0.13893  -0.37396   0.37412  -0.00507
  92        2S         -0.11347   0.11434  -0.30735   0.30754  -0.00412
  93        2PX        -0.00005   0.00017   0.00027  -0.00028   0.00020
  94        2PY        -0.00048   0.00033   0.00024  -0.00018  -0.00050
  95        2PZ         0.00000   0.00000   0.00000   0.00000   0.00000
  96        3S         -0.00322   0.00276  -0.00898   0.00841  -0.00021
  97        3PX         0.00001  -0.00101  -0.00054   0.00047  -0.00045
  98        3PY         0.00191  -0.00098  -0.00080   0.00042   0.00200
  99        3PZ         0.00001  -0.00002  -0.00001   0.00001   0.00001
 100        4S         -0.00391  -0.00033   0.01128  -0.00394   0.00759
 101        4PX        -0.00192   0.00041   0.00725  -0.00287   0.00443
 102        4PY        -0.00019   0.00023   0.00044  -0.00027   0.00024
 103        4PZ        -0.00002   0.00001   0.00008  -0.00003   0.00005
 104        5D 0        0.00007  -0.00004   0.00098  -0.00104   0.00030
 105        5D+1        0.00000   0.00000  -0.00002   0.00002   0.00000
 106        5D-1        0.00001  -0.00001  -0.00002   0.00002   0.00001
 107        5D+2       -0.00032   0.00060   0.00018  -0.00015   0.00015
 108        5D-2        0.00098  -0.00045  -0.00039   0.00020   0.00107
 109 7   H  1S         -0.00035   0.00020   0.00022  -0.00024   0.00009
 110        2S          0.00262  -0.00239  -0.00128   0.00064  -0.00036
 111        3S          0.00017   0.00047  -0.00095   0.00045  -0.00085
 112        4PX         0.00061  -0.00070  -0.00020   0.00010   0.00010
 113        4PY        -0.00097   0.00111   0.00020  -0.00008  -0.00007
 114        4PZ         0.00000   0.00000   0.00000   0.00000   0.00000
 115 8   H  1S          0.00005  -0.00020  -0.00010  -0.00009  -0.00038
 116        2S         -0.00016  -0.00031   0.00035  -0.00014   0.00299
 117        3S         -0.00050   0.00074   0.00108   0.00034   0.00047
 118        4PX        -0.00010   0.00023   0.00006   0.00005  -0.00054
 119        4PY        -0.00005   0.00039   0.00019   0.00021  -0.00107
 120        4PZ         0.00000   0.00001   0.00000   0.00000  -0.00001
 121 9   H  1S          0.00006  -0.00005   0.00041   0.00031   0.00009
 122        2S         -0.00074  -0.00106  -0.00283  -0.00223  -0.00036
 123        3S          0.00062   0.00065  -0.00075   0.00006  -0.00085
 124        4PX         0.00054   0.00076   0.00105   0.00107  -0.00012
 125        4PY         0.00008   0.00008   0.00003   0.00004   0.00004
 126        4PZ         0.00001   0.00001   0.00001   0.00001   0.00000
 127 10  H  1S          0.00036   0.00020  -0.00022  -0.00024  -0.00009
 128        2S         -0.00264  -0.00237   0.00128   0.00064   0.00035
 129        3S         -0.00017   0.00047   0.00095   0.00045   0.00086
 130        4PX         0.00061   0.00070  -0.00020  -0.00010   0.00011
 131        4PY        -0.00098  -0.00110   0.00020   0.00008  -0.00008
 132        4PZ         0.00000   0.00000   0.00000   0.00000   0.00000
 133 11  H  1S         -0.00005  -0.00020   0.00010  -0.00009   0.00039
 134        2S          0.00016  -0.00031  -0.00035  -0.00014  -0.00305
 135        3S          0.00050   0.00074  -0.00108   0.00034  -0.00047
 136        4PX        -0.00010  -0.00023   0.00006  -0.00005  -0.00056
 137        4PY        -0.00005  -0.00039   0.00019  -0.00021  -0.00110
 138        4PZ         0.00000  -0.00001   0.00000   0.00000  -0.00001
 139 12  H  1S         -0.00006  -0.00005  -0.00041   0.00031  -0.00009
 140        2S          0.00074  -0.00107   0.00283  -0.00223   0.00035
 141        3S         -0.00061   0.00065   0.00075   0.00006   0.00086
 142        4PX         0.00053  -0.00076   0.00105  -0.00107  -0.00013
 143        4PY         0.00008  -0.00008   0.00003  -0.00004   0.00004
 144        4PZ         0.00001  -0.00001   0.00001  -0.00001   0.00000
                           6         7         8         9        10
                           O         O         O         O         O
     Eigenvalues --   -10.45415  -0.90229  -0.78989  -0.78513  -0.63436
   1 1   C  1S         -0.00455  -0.05048  -0.06107  -0.03381  -0.04762
   2        2S         -0.00362  -0.08051  -0.09800  -0.05421  -0.07738
   3        2PX         0.00046   0.01437  -0.01620   0.03967   0.02145
   4        2PY        -0.00002  -0.02296  -0.01993   0.02061   0.04726
   5        2PZ         0.00000  -0.00002  -0.00032   0.00058   0.00058
   6        3S         -0.00042   0.20441   0.25121   0.13949   0.20306
   7        3PX        -0.00151   0.02053  -0.02262   0.05626   0.03066
   8        3PY         0.00037  -0.03222  -0.02762   0.03027   0.06832
   9        3PZ        -0.00001  -0.00002  -0.00044   0.00083   0.00084
  10        4S          0.00089   0.09387   0.14359   0.07128   0.14624
  11        4PX         0.00087   0.00299  -0.00760   0.01494   0.01182
  12        4PY        -0.00105  -0.00703  -0.00816   0.00921   0.02925
  13        4PZ         0.00000  -0.00002  -0.00014   0.00023   0.00035
  14        5D 0        0.00033  -0.00894  -0.00849  -0.00412  -0.00500
  15        5D+1       -0.00002   0.00016   0.00016   0.00015   0.00012
  16        5D-1        0.00000   0.00012   0.00019  -0.00003   0.00003
  17        5D+2       -0.00074  -0.00039  -0.00309   0.00825   0.00321
  18        5D-2       -0.00027  -0.00003   0.00500  -0.00202  -0.00100
  19 2   C  1S          0.40330  -0.04926  -0.00159  -0.06887   0.00080
  20        2S          0.33148  -0.07889  -0.00256  -0.11100   0.00130
  21        2PX         0.00005  -0.01242  -0.04381  -0.00373  -0.07887
  22        2PY         0.00009  -0.02434   0.02202  -0.00982   0.03985
  23        2PZ         0.00000  -0.00031  -0.00031  -0.00011  -0.00055
  24        3S          0.00907   0.19861   0.00648   0.28169  -0.00336
  25        3PX        -0.00003  -0.01819  -0.06290  -0.00588  -0.11220
  26        3PY        -0.00004  -0.03559   0.03157  -0.01508   0.05667
  27        3PZ         0.00000  -0.00046  -0.00044  -0.00017  -0.00078
  28        4S         -0.00353   0.09601   0.00426   0.17371  -0.00253
  29        4PX         0.00115  -0.00307  -0.01710  -0.00217  -0.04329
  30        4PY         0.00226  -0.00594   0.00848  -0.00516   0.02189
  31        4PZ         0.00003  -0.00008  -0.00012  -0.00006  -0.00030
  32        5D 0       -0.00107  -0.01031  -0.00028  -0.01169   0.00011
  33        5D+1        0.00002   0.00019   0.00013   0.00022   0.00009
  34        5D-1        0.00002   0.00013   0.00001   0.00010   0.00000
  35        5D+2       -0.00004   0.00006   0.00781   0.00241   0.00554
  36        5D-2        0.00006  -0.00005   0.00555  -0.00365   0.00402
  37 3   C  1S         -0.00467  -0.05043   0.05940  -0.03659   0.04686
  38        2S         -0.00371  -0.08044   0.09535  -0.05869   0.07616
  39        2PX        -0.00029  -0.02701   0.00629  -0.00697  -0.02463
  40        2PY         0.00036  -0.00192   0.02683   0.04294  -0.04729
  41        2PZ         0.00000  -0.00030   0.00027   0.00025  -0.00062
  42        3S         -0.00042   0.20416  -0.24428   0.15090  -0.19979
  43        3PX         0.00119  -0.03822   0.00876  -0.00909  -0.03580
  44        3PY        -0.00100  -0.00241   0.03745   0.06160  -0.06805
  45        3PZ         0.00001  -0.00043   0.00037   0.00036  -0.00089
  46        4S          0.00089   0.09413  -0.14085   0.07795  -0.14378
  47        4PX        -0.00136  -0.00753   0.00225  -0.00147  -0.01612
  48        4PY         0.00009  -0.00182   0.01181   0.01690  -0.02794
  49        4PZ        -0.00001  -0.00009   0.00011   0.00011  -0.00038
  50        5D 0        0.00033  -0.00901   0.00839  -0.00456   0.00497
  51        5D+1        0.00000   0.00017  -0.00015   0.00001  -0.00007
  52        5D-1        0.00000   0.00012  -0.00019  -0.00002  -0.00003
  53        5D+2        0.00048   0.00011   0.00382  -0.00081   0.00000
  54        5D-2        0.00062   0.00038  -0.00488  -0.00826   0.00353
  55 4   C  1S         -0.00444  -0.05048   0.06107   0.03381  -0.04762
  56        2S         -0.00353  -0.08051   0.09800   0.05421  -0.07738
  57        2PX        -0.00045  -0.01437  -0.01620   0.03967  -0.02145
  58        2PY         0.00003   0.02296  -0.01993   0.02061  -0.04726
  59        2PZ         0.00000   0.00002  -0.00032   0.00058  -0.00058
  60        3S         -0.00042   0.20441  -0.25121  -0.13949   0.20306
  61        3PX         0.00147  -0.02053  -0.02262   0.05626  -0.03066
  62        3PY        -0.00039   0.03222  -0.02762   0.03027  -0.06832
  63        3PZ         0.00001   0.00002  -0.00044   0.00083  -0.00084
  64        4S          0.00072   0.09387  -0.14359  -0.07128   0.14624
  65        4PX        -0.00082  -0.00299  -0.00760   0.01494  -0.01182
  66        4PY         0.00096   0.00703  -0.00816   0.00921  -0.02925
  67        4PZ         0.00000   0.00002  -0.00014   0.00023  -0.00035
  68        5D 0        0.00032  -0.00894   0.00849   0.00412  -0.00500
  69        5D+1       -0.00002   0.00016  -0.00016  -0.00015   0.00012
  70        5D-1        0.00000   0.00012  -0.00019   0.00003   0.00003
  71        5D+2       -0.00071  -0.00039   0.00309  -0.00825   0.00321
  72        5D-2       -0.00027  -0.00003  -0.00500   0.00202  -0.00100
  73 5   C  1S          0.39433  -0.04926   0.00159   0.06887   0.00080
  74        2S          0.32411  -0.07889   0.00256   0.11100   0.00130
  75        2PX        -0.00005   0.01242  -0.04381  -0.00373   0.07887
  76        2PY        -0.00009   0.02434   0.02202  -0.00982  -0.03985
  77        2PZ         0.00000   0.00031  -0.00031  -0.00011   0.00055
  78        3S          0.00885   0.19861  -0.00648  -0.28169  -0.00336
  79        3PX         0.00002   0.01819  -0.06290  -0.00588   0.11220
  80        3PY         0.00003   0.03559   0.03157  -0.01508  -0.05667
  81        3PZ         0.00000   0.00046  -0.00044  -0.00017   0.00078
  82        4S         -0.00332   0.09601  -0.00426  -0.17371  -0.00253
  83        4PX        -0.00109   0.00307  -0.01710  -0.00217   0.04329
  84        4PY        -0.00214   0.00594   0.00848  -0.00516  -0.02189
  85        4PZ        -0.00003   0.00008  -0.00012  -0.00006   0.00030
  86        5D 0       -0.00105  -0.01031   0.00028   0.01169   0.00011
  87        5D+1        0.00002   0.00019  -0.00013  -0.00022   0.00009
  88        5D-1        0.00001   0.00013  -0.00001  -0.00010   0.00000
  89        5D+2       -0.00004   0.00006  -0.00781  -0.00241   0.00554
  90        5D-2        0.00006  -0.00005  -0.00555   0.00365   0.00402
  91 6   C  1S         -0.00455  -0.05043  -0.05940   0.03659   0.04686
  92        2S         -0.00362  -0.08044  -0.09535   0.05869   0.07616
  93        2PX         0.00029   0.02701   0.00629  -0.00697   0.02463
  94        2PY        -0.00035   0.00192   0.02683   0.04294   0.04729
  95        2PZ         0.00000   0.00030   0.00027   0.00025   0.00062
  96        3S         -0.00042   0.20416   0.24428  -0.15090  -0.19979
  97        3PX        -0.00118   0.03822   0.00876  -0.00909   0.03580
  98        3PY         0.00095   0.00241   0.03745   0.06160   0.06805
  99        3PZ        -0.00001   0.00043   0.00037   0.00036   0.00089
 100        4S          0.00072   0.09413   0.14085  -0.07795  -0.14378
 101        4PX         0.00126   0.00753   0.00225  -0.00147   0.01612
 102        4PY        -0.00009   0.00182   0.01181   0.01690   0.02794
 103        4PZ         0.00001   0.00009   0.00011   0.00011   0.00038
 104        5D 0        0.00032  -0.00901  -0.00839   0.00456   0.00497
 105        5D+1        0.00000   0.00017   0.00015  -0.00001  -0.00007
 106        5D-1        0.00000   0.00012   0.00019   0.00002  -0.00003
 107        5D+2        0.00048   0.00011  -0.00382   0.00081   0.00000
 108        5D-2        0.00059   0.00038   0.00488   0.00826   0.00353
 109 7   H  1S         -0.00016   0.02271   0.04499   0.02501   0.06544
 110        2S         -0.00017   0.02340   0.04968   0.02890   0.08143
 111        3S          0.00056  -0.00101   0.00435   0.00253   0.01822
 112        4PX        -0.00020   0.00202   0.00326   0.00404   0.00694
 113        4PY         0.00025  -0.00307  -0.00684  -0.00250  -0.00706
 114        4PZ         0.00000   0.00000  -0.00002   0.00002   0.00002
 115 8   H  1S          0.00026   0.02120   0.00111   0.04902  -0.00096
 116        2S         -0.00258   0.02029   0.00114   0.05162  -0.00116
 117        3S          0.00030  -0.00099   0.00014   0.00595  -0.00029
 118        4PX         0.00060  -0.00146  -0.00214  -0.00346  -0.00339
 119        4PY         0.00117  -0.00286   0.00089  -0.00691   0.00187
 120        4PZ         0.00002  -0.00004  -0.00002  -0.00009  -0.00002
 121 9   H  1S         -0.00016   0.02265  -0.04372   0.02705  -0.06408
 122        2S         -0.00017   0.02332  -0.04814   0.03115  -0.07970
 123        3S          0.00056  -0.00100  -0.00425   0.00274  -0.01785
 124        4PX         0.00032  -0.00366   0.00722  -0.00473   0.00958
 125        4PY        -0.00002  -0.00016   0.00146   0.00173  -0.00157
 126        4PZ         0.00000  -0.00004   0.00009  -0.00004   0.00009
 127 10  H  1S         -0.00015   0.02271  -0.04499  -0.02501   0.06544
 128        2S         -0.00018   0.02340  -0.04968  -0.02890   0.08143
 129        3S          0.00054  -0.00101  -0.00435  -0.00253   0.01822
 130        4PX         0.00020  -0.00202   0.00326   0.00404  -0.00694
 131        4PY        -0.00024   0.00307  -0.00684  -0.00250   0.00706
 132        4PZ         0.00000   0.00000  -0.00002   0.00002  -0.00002
 133 11  H  1S          0.00025   0.02120  -0.00111  -0.04902  -0.00096
 134        2S         -0.00251   0.02029  -0.00114  -0.05162  -0.00116
 135        3S          0.00031  -0.00099  -0.00014  -0.00595  -0.00029
 136        4PX        -0.00058   0.00146  -0.00214  -0.00346   0.00339
 137        4PY        -0.00115   0.00286   0.00089  -0.00691  -0.00187
 138        4PZ        -0.00002   0.00004  -0.00002  -0.00009   0.00002
 139 12  H  1S         -0.00015   0.02265   0.04372  -0.02705  -0.06408
 140        2S         -0.00017   0.02332   0.04814  -0.03115  -0.07970
 141        3S          0.00054  -0.00100   0.00425  -0.00274  -0.01785
 142        4PX        -0.00031   0.00366   0.00722  -0.00473  -0.00958
 143        4PY         0.00001   0.00016   0.00146   0.00173   0.00157
 144        4PZ         0.00000   0.00004   0.00009  -0.00004  -0.00009
                          11        12        13        14        15
                           O         O         O         O         O
     Eigenvalues --    -0.63354  -0.55071  -0.48610  -0.45626  -0.44055
   1 1   C  1S          0.02618  -0.00255   0.02976  -0.00006  -0.01283
   2        2S          0.04259  -0.00391   0.04871  -0.00012  -0.02096
   3        2PX         0.07754  -0.04372   0.03836  -0.10471   0.05123
   4        2PY         0.02788   0.07773  -0.05240  -0.07229  -0.10681
   5        2PZ         0.00104   0.00011   0.00003  -0.00166  -0.00025
   6        3S         -0.11033   0.00842  -0.12754  -0.00009   0.05918
   7        3PX         0.10748  -0.06252   0.05375  -0.14954   0.07143
   8        3PY         0.03796   0.11061  -0.07548  -0.10328  -0.15352
   9        3PZ         0.00143   0.00016   0.00003  -0.00237  -0.00038
  10        4S         -0.09465   0.02678  -0.15576   0.00219   0.05374
  11        4PX         0.04106  -0.03385   0.02621  -0.08307   0.05668
  12        4PY         0.01581   0.05734  -0.04185  -0.05638  -0.08914
  13        4PZ         0.00056   0.00007  -0.00002  -0.00131  -0.00006
  14        5D 0        0.00339   0.00166   0.00227  -0.00075  -0.00025
  15        5D+1       -0.00003   0.00004   0.00017  -0.00001  -0.00002
  16        5D-1       -0.00011   0.00001   0.00008   0.00006   0.00013
  17        5D+2        0.00489   0.00280   0.00832  -0.00397  -0.00703
  18        5D-2       -0.00331   0.00487   0.01578   0.00214   0.00672
  19 2   C  1S         -0.05445  -0.00648  -0.03264   0.00003  -0.00007
  20        2S         -0.08891  -0.01041  -0.05362   0.00006  -0.00011
  21        2PX         0.01041   0.03965   0.02051   0.10979  -0.03940
  22        2PY         0.02332   0.07744   0.04035  -0.05582   0.01746
  23        2PZ         0.00029   0.00101   0.00054   0.00076  -0.00029
  24        3S          0.22847   0.02552   0.13858  -0.00015   0.00038
  25        3PX         0.01466   0.05664   0.02947   0.15921  -0.06053
  26        3PY         0.03281   0.11067   0.05795  -0.08094   0.02709
  27        3PZ         0.00041   0.00145   0.00078   0.00111  -0.00045
  28        4S          0.19422   0.04296   0.17498   0.00002  -0.00014
  29        4PX         0.00415   0.03034   0.01576   0.08899  -0.01295
  30        4PY         0.00944   0.05939   0.03059  -0.04534   0.00434
  31        4PZ         0.00012   0.00078   0.00042   0.00062  -0.00011
  32        5D 0       -0.00824   0.00066  -0.00376   0.00001   0.00002
  33        5D+1        0.00016  -0.00001   0.00007  -0.00006   0.00024
  34        5D-1        0.00009  -0.00009   0.00027   0.00000   0.00000
  35        5D+2        0.00102   0.00398  -0.00966  -0.00357   0.01516
  36        5D-2       -0.00122  -0.00548   0.01337  -0.00260   0.01087
  37 3   C  1S          0.02755  -0.00268   0.02987   0.00000   0.01232
  38        2S          0.04481  -0.00412   0.04890   0.00003   0.02013
  39        2PX        -0.02376   0.08851  -0.06419  -0.00291   0.11488
  40        2PY         0.07771   0.01056   0.00060   0.12709   0.02235
  41        2PZ         0.00032   0.00103  -0.00067   0.00091   0.00139
  42        3S         -0.11607   0.00897  -0.12796   0.00034  -0.05694
  43        3PX        -0.03349   0.12615  -0.09160  -0.00411   0.16389
  44        3PY         0.10733   0.01479  -0.00038   0.18165   0.03408
  45        3PZ         0.00044   0.00146  -0.00097   0.00131   0.00201
  46        4S         -0.09941   0.02740  -0.15655  -0.00202  -0.05078
  47        4PX        -0.01176   0.06624  -0.04871  -0.00302   0.10387
  48        4PY         0.04152   0.00638  -0.00330   0.10015   0.00674
  49        4PZ         0.00018   0.00076  -0.00054   0.00072   0.00116
  50        5D 0        0.00359   0.00163   0.00232   0.00077   0.00024
  51        5D+1       -0.00009  -0.00010  -0.00026  -0.00004  -0.00003
  52        5D-1       -0.00012   0.00001   0.00007  -0.00006  -0.00013
  53        5D+2        0.00168  -0.00552  -0.01753   0.00087   0.00439
  54        5D-2       -0.00558  -0.00120  -0.00312  -0.00443  -0.00925
  55 4   C  1S          0.02618  -0.00255  -0.02976   0.00006   0.01283
  56        2S          0.04259  -0.00391  -0.04871   0.00012   0.02096
  57        2PX        -0.07754   0.04372   0.03836  -0.10471   0.05123
  58        2PY        -0.02788  -0.07773  -0.05240  -0.07229  -0.10681
  59        2PZ        -0.00104  -0.00011   0.00003  -0.00166  -0.00025
  60        3S         -0.11033   0.00842   0.12755   0.00009  -0.05918
  61        3PX        -0.10748   0.06252   0.05375  -0.14954   0.07143
  62        3PY        -0.03796  -0.11061  -0.07548  -0.10328  -0.15352
  63        3PZ        -0.00143  -0.00016   0.00003  -0.00237  -0.00038
  64        4S         -0.09465   0.02678   0.15576  -0.00219  -0.05374
  65        4PX        -0.04106   0.03385   0.02621  -0.08307   0.05668
  66        4PY        -0.01581  -0.05734  -0.04185  -0.05638  -0.08914
  67        4PZ        -0.00056  -0.00007  -0.00002  -0.00131  -0.00006
  68        5D 0        0.00339   0.00166  -0.00227   0.00075   0.00025
  69        5D+1       -0.00003   0.00004  -0.00017   0.00001   0.00002
  70        5D-1       -0.00011   0.00001  -0.00008  -0.00006  -0.00013
  71        5D+2        0.00489   0.00280  -0.00832   0.00397   0.00703
  72        5D-2       -0.00331   0.00487  -0.01578  -0.00214  -0.00672
  73 5   C  1S         -0.05445  -0.00648   0.03264  -0.00003   0.00007
  74        2S         -0.08891  -0.01041   0.05362  -0.00006   0.00011
  75        2PX        -0.01041  -0.03965   0.02051   0.10979  -0.03940
  76        2PY        -0.02332  -0.07744   0.04035  -0.05582   0.01746
  77        2PZ        -0.00029  -0.00101   0.00054   0.00076  -0.00029
  78        3S          0.22847   0.02552  -0.13858   0.00015  -0.00038
  79        3PX        -0.01466  -0.05664   0.02947   0.15921  -0.06053
  80        3PY        -0.03281  -0.11067   0.05795  -0.08094   0.02709
  81        3PZ        -0.00041  -0.00145   0.00078   0.00111  -0.00045
  82        4S          0.19422   0.04296  -0.17498  -0.00002   0.00014
  83        4PX        -0.00415  -0.03034   0.01576   0.08899  -0.01295
  84        4PY        -0.00944  -0.05939   0.03059  -0.04534   0.00434
  85        4PZ        -0.00012  -0.00078   0.00042   0.00062  -0.00011
  86        5D 0       -0.00824   0.00066   0.00376  -0.00001  -0.00002
  87        5D+1        0.00016  -0.00001  -0.00007   0.00006  -0.00024
  88        5D-1        0.00009  -0.00009  -0.00027   0.00000   0.00000
  89        5D+2        0.00102   0.00398   0.00966   0.00357  -0.01516
  90        5D-2       -0.00122  -0.00548  -0.01337   0.00260  -0.01087
  91 6   C  1S          0.02755  -0.00268  -0.02987   0.00000  -0.01232
  92        2S          0.04481  -0.00412  -0.04890  -0.00003  -0.02013
  93        2PX         0.02376  -0.08851  -0.06419  -0.00291   0.11488
  94        2PY        -0.07771  -0.01056   0.00060   0.12709   0.02235
  95        2PZ        -0.00032  -0.00103  -0.00067   0.00091   0.00139
  96        3S         -0.11607   0.00897   0.12796  -0.00034   0.05694
  97        3PX         0.03349  -0.12615  -0.09160  -0.00411   0.16389
  98        3PY        -0.10733  -0.01479  -0.00038   0.18165   0.03408
  99        3PZ        -0.00044  -0.00146  -0.00097   0.00131   0.00201
 100        4S         -0.09941   0.02740   0.15655   0.00202   0.05078
 101        4PX         0.01176  -0.06624  -0.04871  -0.00302   0.10387
 102        4PY        -0.04152  -0.00638  -0.00330   0.10015   0.00674
 103        4PZ        -0.00018  -0.00076  -0.00054   0.00072   0.00116
 104        5D 0        0.00359   0.00163  -0.00232  -0.00077  -0.00024
 105        5D+1       -0.00009  -0.00010   0.00026   0.00004   0.00003
 106        5D-1       -0.00012   0.00001  -0.00007   0.00006   0.00013
 107        5D+2        0.00168  -0.00552   0.01753  -0.00087  -0.00439
 108        5D-2       -0.00558  -0.00120   0.00312   0.00443   0.00925
 109 7   H  1S         -0.03845   0.06862  -0.09001  -0.00286  -0.08777
 110        2S         -0.04617   0.08698  -0.12020  -0.00533  -0.12522
 111        3S         -0.01169   0.02929  -0.05430  -0.00184  -0.06294
 112        4PX        -0.00004   0.00534  -0.00419  -0.00539  -0.00609
 113        4PY         0.00655  -0.00735   0.00673  -0.00291   0.00686
 114        4PZ         0.00005   0.00000   0.00001  -0.00008  -0.00001
 115 8   H  1S          0.06925   0.06987   0.07563   0.00005  -0.00193
 116        2S          0.08043   0.08530   0.09463   0.00008  -0.00265
 117        3S          0.02250   0.03062   0.04788   0.00003  -0.00144
 118        4PX        -0.00431  -0.00403  -0.00249   0.00503  -0.00248
 119        4PY        -0.00832  -0.00795  -0.00488  -0.00257   0.00147
 120        4PZ        -0.00011  -0.00011  -0.00006   0.00003  -0.00002
 121 9   H  1S         -0.04028   0.06868  -0.08945   0.00313   0.08698
 122        2S         -0.04830   0.08697  -0.11920   0.00572   0.12393
 123        3S         -0.01223   0.02932  -0.05401   0.00201   0.06242
 124        4PX         0.00558  -0.00908   0.00781  -0.00084  -0.00901
 125        4PY         0.00378   0.00002   0.00058   0.00607   0.00098
 126        4PZ         0.00009  -0.00010   0.00009   0.00004  -0.00009
 127 10  H  1S         -0.03845   0.06862   0.09001   0.00286   0.08777
 128        2S         -0.04617   0.08698   0.12020   0.00533   0.12522
 129        3S         -0.01169   0.02929   0.05430   0.00184   0.06294
 130        4PX         0.00004  -0.00534  -0.00419  -0.00539  -0.00609
 131        4PY        -0.00655   0.00735   0.00673  -0.00291   0.00686
 132        4PZ        -0.00005   0.00000   0.00001  -0.00008  -0.00001
 133 11  H  1S          0.06925   0.06987  -0.07563  -0.00005   0.00193
 134        2S          0.08043   0.08530  -0.09463  -0.00008   0.00265
 135        3S          0.02250   0.03062  -0.04788  -0.00003   0.00144
 136        4PX         0.00431   0.00403  -0.00249   0.00503  -0.00248
 137        4PY         0.00832   0.00795  -0.00488  -0.00257   0.00147
 138        4PZ         0.00011   0.00011  -0.00006   0.00003  -0.00002
 139 12  H  1S         -0.04028   0.06868   0.08945  -0.00313  -0.08698
 140        2S         -0.04830   0.08697   0.11920  -0.00572  -0.12393
 141        3S         -0.01223   0.02932   0.05401  -0.00201  -0.06242
 142        4PX        -0.00558   0.00908   0.00781  -0.00084  -0.00901
 143        4PY        -0.00378  -0.00002   0.00058   0.00607   0.00098
 144        4PZ        -0.00009   0.00010   0.00009   0.00004  -0.00009
                          16        17        18        19        20
                           O         O         O         O         O
     Eigenvalues --    -0.43311  -0.39622  -0.35185  -0.34879  -0.27457
   1 1   C  1S          0.00971  -0.00001   0.00448   0.00203   0.00000
   2        2S          0.01589  -0.00001   0.00746   0.00340   0.00000
   3        2PX        -0.06111  -0.00100  -0.09825   0.06340  -0.00141
   4        2PY         0.03185  -0.00073   0.03906   0.09751  -0.00098
   5        2PZ        -0.00037   0.09659  -0.00076   0.00138   0.13153
   6        3S         -0.04413   0.00004  -0.02360  -0.01078  -0.00002
   7        3PX        -0.09084  -0.00154  -0.13933   0.08797  -0.00212
   8        3PY         0.04319  -0.00112   0.05751   0.13815  -0.00147
   9        3PZ        -0.00058   0.14769  -0.00106   0.00193   0.19838
  10        4S         -0.04571   0.00003   0.00301   0.00359   0.00002
  11        4PX        -0.03636  -0.00129  -0.10595   0.05959  -0.00235
  12        4PY         0.04124  -0.00089   0.05116   0.10377  -0.00164
  13        4PZ        -0.00003   0.12130  -0.00075   0.00138   0.21980
  14        5D 0        0.00001  -0.00002  -0.00028   0.00060  -0.00028
  15        5D+1       -0.00011   0.00550  -0.00031  -0.00010  -0.00752
  16        5D-1        0.00017  -0.00934  -0.00009  -0.00024  -0.01120
  17        5D+2       -0.01484  -0.00012  -0.01575   0.00501   0.00000
  18        5D-2        0.00633   0.00005  -0.01949  -0.01761   0.00018
  19 2   C  1S          0.01078   0.00000  -0.00003  -0.00351   0.00000
  20        2S          0.01764   0.00000  -0.00006  -0.00593   0.00000
  21        2PX         0.06202  -0.00111   0.10820  -0.04653  -0.00010
  22        2PY         0.12353  -0.00082  -0.05614  -0.08907  -0.00007
  23        2PZ         0.00165   0.09918   0.00074  -0.00123   0.00864
  24        3S         -0.05060   0.00000   0.00018   0.02003   0.00000
  25        3PX         0.08926  -0.00164   0.15322  -0.06774  -0.00014
  26        3PY         0.17795  -0.00122  -0.07954  -0.12977  -0.00010
  27        3PZ         0.00238   0.14744   0.00105  -0.00180   0.01259
  28        4S         -0.04195   0.00000   0.00002  -0.01340   0.00000
  29        4PX         0.05741  -0.00138   0.10875  -0.05474  -0.00017
  30        4PY         0.11354  -0.00103  -0.05665  -0.10524  -0.00013
  31        4PZ         0.00154   0.12301   0.00074  -0.00147   0.01571
  32        5D 0       -0.00021  -0.00021   0.00000   0.00020  -0.00022
  33        5D+1        0.00001  -0.00483  -0.00018   0.00000  -0.01813
  34        5D-1        0.00007  -0.00942  -0.00001  -0.00036   0.00890
  35        5D+2       -0.00261  -0.00001  -0.01108   0.01610   0.00026
  36        5D-2        0.00410   0.00013  -0.00834  -0.02194   0.00004
  37 3   C  1S          0.01011  -0.00001  -0.00442   0.00207   0.00000
  38        2S          0.01654  -0.00001  -0.00736   0.00346   0.00000
  39        2PX         0.06534  -0.00106  -0.08873   0.04312   0.00134
  40        2PY        -0.03021  -0.00070   0.05837   0.10761   0.00093
  41        2PZ         0.00052   0.09662  -0.00052   0.00124  -0.12445
  42        3S         -0.04596   0.00004   0.02332  -0.01102   0.00001
  43        3PX         0.09358  -0.00162  -0.12757   0.06225   0.00201
  44        3PY        -0.04733  -0.00107   0.08153   0.15109   0.00140
  45        3PZ         0.00072   0.14758  -0.00076   0.00175  -0.18740
  46        4S         -0.04742   0.00002  -0.00323   0.00396  -0.00002
  47        4PX         0.05809  -0.00130  -0.10299   0.05072   0.00228
  48        4PY        -0.00514  -0.00090   0.05745   0.10818   0.00157
  49        4PZ         0.00064   0.12134  -0.00068   0.00132  -0.21055
  50        5D 0        0.00002  -0.00021   0.00030   0.00061   0.00027
  51        5D+1        0.00010  -0.01078  -0.00032   0.00008   0.00410
  52        5D-1        0.00018  -0.00108   0.00007  -0.00024   0.01484
  53        5D+2       -0.00132   0.00011  -0.02309   0.01564   0.00007
  54        5D-2        0.01579   0.00008  -0.00917  -0.01005  -0.00019
  55 4   C  1S         -0.00971   0.00001   0.00448   0.00203   0.00000
  56        2S         -0.01589   0.00001   0.00746   0.00340   0.00000
  57        2PX        -0.06111  -0.00100   0.09825  -0.06340   0.00141
  58        2PY         0.03185  -0.00073  -0.03906  -0.09751   0.00098
  59        2PZ        -0.00037   0.09659   0.00076  -0.00138  -0.13153
  60        3S          0.04413  -0.00004  -0.02360  -0.01078  -0.00002
  61        3PX        -0.09084  -0.00154   0.13933  -0.08797   0.00212
  62        3PY         0.04319  -0.00112  -0.05751  -0.13815   0.00147
  63        3PZ        -0.00058   0.14769   0.00106  -0.00193  -0.19838
  64        4S          0.04571  -0.00003   0.00301   0.00359   0.00002
  65        4PX        -0.03636  -0.00130   0.10595  -0.05959   0.00235
  66        4PY         0.04124  -0.00089  -0.05116  -0.10377   0.00164
  67        4PZ        -0.00003   0.12130   0.00075  -0.00138  -0.21980
  68        5D 0       -0.00001   0.00002  -0.00028   0.00060  -0.00028
  69        5D+1        0.00011  -0.00550  -0.00031  -0.00010  -0.00752
  70        5D-1       -0.00017   0.00934  -0.00009  -0.00024  -0.01120
  71        5D+2        0.01484   0.00012  -0.01575   0.00501   0.00000
  72        5D-2       -0.00633  -0.00005  -0.01949  -0.01761   0.00018
  73 5   C  1S         -0.01078   0.00000  -0.00003  -0.00351   0.00000
  74        2S         -0.01764   0.00000  -0.00006  -0.00593   0.00000
  75        2PX         0.06202  -0.00111  -0.10820   0.04653   0.00010
  76        2PY         0.12353  -0.00082   0.05614   0.08907   0.00007
  77        2PZ         0.00165   0.09918  -0.00074   0.00123  -0.00864
  78        3S          0.05060   0.00000   0.00018   0.02003   0.00000
  79        3PX         0.08926  -0.00164  -0.15322   0.06774   0.00014
  80        3PY         0.17795  -0.00122   0.07954   0.12977   0.00010
  81        3PZ         0.00238   0.14744  -0.00105   0.00180  -0.01259
  82        4S          0.04195   0.00000   0.00002  -0.01340   0.00000
  83        4PX         0.05741  -0.00138  -0.10875   0.05474   0.00017
  84        4PY         0.11354  -0.00103   0.05665   0.10524   0.00013
  85        4PZ         0.00154   0.12301  -0.00074   0.00147  -0.01571
  86        5D 0        0.00021   0.00021   0.00000   0.00020  -0.00022
  87        5D+1       -0.00001   0.00483  -0.00018   0.00000  -0.01813
  88        5D-1       -0.00007   0.00942  -0.00001  -0.00036   0.00890
  89        5D+2        0.00261   0.00001  -0.01108   0.01610   0.00026
  90        5D-2       -0.00410  -0.00013  -0.00834  -0.02194   0.00004
  91 6   C  1S         -0.01011   0.00001  -0.00442   0.00207   0.00000
  92        2S         -0.01654   0.00001  -0.00736   0.00346   0.00000
  93        2PX         0.06534  -0.00106   0.08873  -0.04312  -0.00134
  94        2PY        -0.03021  -0.00070  -0.05837  -0.10761  -0.00093
  95        2PZ         0.00052   0.09662   0.00052  -0.00124   0.12445
  96        3S          0.04596  -0.00004   0.02332  -0.01102   0.00001
  97        3PX         0.09358  -0.00162   0.12757  -0.06225  -0.00201
  98        3PY        -0.04733  -0.00107  -0.08153  -0.15109  -0.00140
  99        3PZ         0.00072   0.14758   0.00076  -0.00175   0.18740
 100        4S          0.04742  -0.00002  -0.00323   0.00396  -0.00002
 101        4PX         0.05809  -0.00130   0.10299  -0.05072  -0.00228
 102        4PY        -0.00514  -0.00090  -0.05745  -0.10818  -0.00157
 103        4PZ         0.00064   0.12134   0.00068  -0.00132   0.21055
 104        5D 0       -0.00002   0.00021   0.00030   0.00061   0.00027
 105        5D+1       -0.00010   0.01078  -0.00032   0.00008   0.00410
 106        5D-1       -0.00018   0.00108   0.00007  -0.00024   0.01484
 107        5D+2        0.00132  -0.00011  -0.02309   0.01564   0.00007
 108        5D-2       -0.01579  -0.00008  -0.00917  -0.01005  -0.00019
 109 7   H  1S          0.04121  -0.00001   0.08617   0.04806   0.00000
 110        2S          0.05962  -0.00003   0.12634   0.07170   0.00000
 111        3S          0.03086  -0.00002   0.08909   0.05003   0.00000
 112        4PX         0.00048  -0.00007  -0.00038   0.00635  -0.00011
 113        4PY        -0.00485  -0.00004  -0.00527   0.00116  -0.00007
 114        4PZ        -0.00003   0.00633  -0.00004   0.00007   0.01009
 115 8   H  1S          0.10773  -0.00006  -0.00089  -0.10061   0.00000
 116        2S          0.14936  -0.00007  -0.00127  -0.14312   0.00000
 117        3S          0.08211  -0.00005  -0.00096  -0.10790   0.00000
 118        4PX        -0.00464  -0.00008   0.00589   0.00192  -0.00001
 119        4PY        -0.00900  -0.00005  -0.00296   0.00390  -0.00001
 120        4PZ        -0.00012   0.00724   0.00004   0.00005   0.00069
 121 9   H  1S          0.04394  -0.00001  -0.08536   0.04960   0.00000
 122        2S          0.06349  -0.00002  -0.12497   0.07386   0.00000
 123        3S          0.03289  -0.00002  -0.08829   0.05166  -0.00001
 124        4PX        -0.00447  -0.00007   0.00397  -0.00285   0.00010
 125        4PY        -0.00244  -0.00005   0.00350   0.00576   0.00007
 126        4PZ        -0.00006   0.00636   0.00007   0.00001  -0.00956
 127 10  H  1S         -0.04121   0.00001   0.08617   0.04806   0.00000
 128        2S         -0.05962   0.00003   0.12634   0.07170   0.00000
 129        3S         -0.03086   0.00002   0.08909   0.05003   0.00000
 130        4PX         0.00048  -0.00007   0.00038  -0.00635   0.00011
 131        4PY        -0.00485  -0.00004   0.00527  -0.00116   0.00007
 132        4PZ        -0.00003   0.00633   0.00004  -0.00007  -0.01009
 133 11  H  1S         -0.10773   0.00006  -0.00089  -0.10061   0.00000
 134        2S         -0.14936   0.00007  -0.00127  -0.14312   0.00000
 135        3S         -0.08211   0.00005  -0.00096  -0.10790   0.00000
 136        4PX        -0.00464  -0.00008  -0.00589  -0.00192   0.00001
 137        4PY        -0.00900  -0.00005   0.00296  -0.00390   0.00001
 138        4PZ        -0.00012   0.00724  -0.00004  -0.00005  -0.00069
 139 12  H  1S         -0.04394   0.00001  -0.08536   0.04960   0.00000
 140        2S         -0.06349   0.00002  -0.12497   0.07386   0.00000
 141        3S         -0.03289   0.00002  -0.08829   0.05166  -0.00001
 142        4PX        -0.00447  -0.00007  -0.00397   0.00285  -0.00010
 143        4PY        -0.00244  -0.00005  -0.00350  -0.00576  -0.00007
 144        4PZ        -0.00006   0.00636  -0.00007  -0.00001   0.00956
                          21        22        23        24        25
                           O         O         V         V         V
     Eigenvalues --    -0.27269  -0.05903   0.07111   0.09926   0.13034
   1 1   C  1S          0.00000  -0.00001   0.00000   0.01661   0.01294
   2        2S          0.00000  -0.00001   0.00000   0.02577   0.02055
   3        2PX        -0.00063   0.00084  -0.00147   0.02465   0.04260
   4        2PY        -0.00042   0.00058  -0.00103  -0.03900  -0.06139
   5        2PZ         0.06101  -0.07876   0.13717  -0.00003  -0.00001
   6        3S         -0.00001   0.00004  -0.00002  -0.04318  -0.03339
   7        3PX        -0.00095   0.00119  -0.00201   0.02116   0.01443
   8        3PY        -0.00064   0.00082  -0.00140  -0.03410  -0.03915
   9        3PZ         0.09256  -0.11072   0.18726  -0.00004  -0.00014
  10        4S          0.00002  -0.00027  -0.00003  -0.53168  -0.69644
  11        4PX        -0.00090   0.00281  -0.00544   0.13042   0.24976
  12        4PY        -0.00059   0.00218  -0.00379  -0.20705  -0.43206
  13        4PZ         0.08661  -0.27268   0.50670  -0.00016  -0.00057
  14        5D 0        0.00047   0.00068   0.00038  -0.00221  -0.00084
  15        5D+1        0.01951   0.02808   0.00807  -0.00016  -0.00021
  16        5D-1        0.00864   0.01224   0.01803  -0.00010   0.00000
  17        5D+2       -0.00014  -0.00021   0.00005  -0.00717  -0.01351
  18        5D-2       -0.00025  -0.00035  -0.00025  -0.01642  -0.01033
  19 2   C  1S          0.00000   0.00001   0.00000   0.01547   0.00032
  20        2S          0.00001   0.00001   0.00000   0.02402   0.00051
  21        2PX        -0.00169  -0.00176   0.00002  -0.01991   0.00281
  22        2PY        -0.00121  -0.00124   0.00002  -0.03900  -0.00374
  23        2PZ         0.15536   0.16230  -0.00213  -0.00051   0.00000
  24        3S         -0.00001  -0.00003   0.00000  -0.03823  -0.00068
  25        3PX        -0.00247  -0.00240   0.00003  -0.01745  -0.01865
  26        3PY        -0.00177  -0.00170   0.00003  -0.03426   0.00826
  27        3PZ         0.22704   0.22192  -0.00285  -0.00045  -0.00014
  28        4S         -0.00006   0.00019   0.00001  -0.50014  -0.02203
  29        4PX        -0.00303  -0.00615   0.00006  -0.09904  -0.05241
  30        4PY        -0.00219  -0.00444   0.00004  -0.19400   0.01434
  31        4PZ         0.27589   0.55922  -0.00792  -0.00258  -0.00046
  32        5D 0       -0.00010   0.00018  -0.00034  -0.00091   0.00003
  33        5D+1       -0.00169   0.00384  -0.02840   0.00001   0.00022
  34        5D-1       -0.00560   0.00856   0.01429   0.00025   0.00001
  35        5D+2       -0.00002   0.00002   0.00041  -0.01042   0.01325
  36        5D-2        0.00006  -0.00012   0.00006   0.01431   0.01018
  37 3   C  1S          0.00000  -0.00001   0.00000   0.01655  -0.01249
  38        2S          0.00000  -0.00001   0.00000   0.02568  -0.01983
  39        2PX        -0.00079   0.00088   0.00145  -0.04592   0.07246
  40        2PY        -0.00051   0.00061   0.00101  -0.00306   0.00136
  41        2PZ         0.07501  -0.08256  -0.13507  -0.00052   0.00079
  42        3S          0.00000   0.00004   0.00001  -0.04292   0.03193
  43        3PX        -0.00120   0.00124   0.00198  -0.03991   0.03882
  44        3PY        -0.00078   0.00086   0.00137  -0.00297   0.01212
  45        3PZ         0.11353  -0.11593  -0.18417  -0.00046   0.00052
  46        4S         -0.00004  -0.00024   0.00006  -0.53009   0.68089
  47        4PX        -0.00111   0.00327   0.00536  -0.24269   0.47605
  48        4PY        -0.00075   0.00213   0.00369  -0.01678   0.05353
  49        4PZ         0.11023  -0.28574  -0.49896  -0.00275   0.00554
  50        5D 0        0.00016   0.00025  -0.00041  -0.00213   0.00071
  51        5D+1       -0.00497  -0.00682  -0.00959   0.00024  -0.00023
  52        5D-1        0.01921   0.02938  -0.01787  -0.00009  -0.00002
  53        5D+2        0.00021   0.00030  -0.00003   0.01785  -0.01351
  54        5D-2       -0.00017  -0.00027   0.00026   0.00176  -0.01036
  55 4   C  1S          0.00000   0.00001   0.00000   0.01661  -0.01294
  56        2S          0.00000   0.00001   0.00000   0.02577  -0.02055
  57        2PX         0.00063   0.00084  -0.00147  -0.02465   0.04260
  58        2PY         0.00042   0.00058  -0.00103   0.03900  -0.06139
  59        2PZ        -0.06101  -0.07876   0.13717   0.00003  -0.00001
  60        3S         -0.00001  -0.00004   0.00002  -0.04318   0.03339
  61        3PX         0.00095   0.00119  -0.00201  -0.02116   0.01443
  62        3PY         0.00064   0.00082  -0.00140   0.03410  -0.03915
  63        3PZ        -0.09256  -0.11072   0.18726   0.00004  -0.00014
  64        4S          0.00002   0.00028   0.00003  -0.53169   0.69644
  65        4PX         0.00090   0.00281  -0.00544  -0.13042   0.24976
  66        4PY         0.00059   0.00218  -0.00379   0.20705  -0.43206
  67        4PZ        -0.08661  -0.27268   0.50670   0.00016  -0.00057
  68        5D 0        0.00047  -0.00068  -0.00038  -0.00221   0.00084
  69        5D+1        0.01951  -0.02808  -0.00807  -0.00016   0.00021
  70        5D-1        0.00864  -0.01224  -0.01803  -0.00010   0.00000
  71        5D+2       -0.00014   0.00021  -0.00005  -0.00717   0.01351
  72        5D-2       -0.00025   0.00035   0.00025  -0.01642   0.01033
  73 5   C  1S          0.00000  -0.00001   0.00000   0.01547  -0.00032
  74        2S          0.00001  -0.00001   0.00000   0.02402  -0.00051
  75        2PX         0.00170  -0.00176   0.00002   0.01991   0.00281
  76        2PY         0.00121  -0.00124   0.00002   0.03900  -0.00374
  77        2PZ        -0.15536   0.16230  -0.00213   0.00051   0.00000
  78        3S         -0.00001   0.00003   0.00000  -0.03823   0.00068
  79        3PX         0.00247  -0.00240   0.00003   0.01745  -0.01865
  80        3PY         0.00177  -0.00170   0.00003   0.03426   0.00826
  81        3PZ        -0.22704   0.22192  -0.00285   0.00045  -0.00014
  82        4S         -0.00006  -0.00019  -0.00001  -0.50014   0.02203
  83        4PX         0.00303  -0.00615   0.00006   0.09904  -0.05241
  84        4PY         0.00219  -0.00444   0.00004   0.19400   0.01434
  85        4PZ        -0.27589   0.55922  -0.00792   0.00258  -0.00046
  86        5D 0       -0.00010  -0.00018   0.00034  -0.00091  -0.00003
  87        5D+1       -0.00169  -0.00384   0.02840   0.00001  -0.00022
  88        5D-1       -0.00560  -0.00856  -0.01429   0.00025  -0.00001
  89        5D+2       -0.00002  -0.00002  -0.00041  -0.01042  -0.01325
  90        5D-2        0.00006   0.00012  -0.00006   0.01431  -0.01018
  91 6   C  1S          0.00000   0.00001   0.00000   0.01655   0.01249
  92        2S          0.00000   0.00001   0.00000   0.02568   0.01983
  93        2PX         0.00079   0.00088   0.00145   0.04592   0.07246
  94        2PY         0.00051   0.00061   0.00101   0.00306   0.00136
  95        2PZ        -0.07501  -0.08256  -0.13507   0.00052   0.00079
  96        3S          0.00000  -0.00004  -0.00001  -0.04292  -0.03193
  97        3PX         0.00120   0.00124   0.00198   0.03991   0.03882
  98        3PY         0.00078   0.00086   0.00137   0.00297   0.01212
  99        3PZ        -0.11353  -0.11593  -0.18417   0.00046   0.00052
 100        4S         -0.00004   0.00024  -0.00006  -0.53009  -0.68090
 101        4PX         0.00111   0.00327   0.00536   0.24269   0.47605
 102        4PY         0.00075   0.00213   0.00369   0.01678   0.05353
 103        4PZ        -0.11023  -0.28574  -0.49896   0.00275   0.00554
 104        5D 0        0.00016  -0.00025   0.00041  -0.00213  -0.00071
 105        5D+1       -0.00497   0.00682   0.00959   0.00024   0.00023
 106        5D-1        0.01921  -0.02938   0.01787  -0.00009   0.00002
 107        5D+2        0.00021  -0.00030   0.00003   0.01785   0.01351
 108        5D-2       -0.00017   0.00027  -0.00026   0.00176   0.01036
 109 7   H  1S          0.00002   0.00000   0.00000   0.01758   0.00155
 110        2S          0.00003  -0.00001  -0.00001  -0.01651  -0.05107
 111        3S          0.00003  -0.00006   0.00004   0.72579   1.07636
 112        4PX        -0.00005   0.00008  -0.00016  -0.00851  -0.01238
 113        4PY        -0.00003   0.00006  -0.00011   0.01287   0.01705
 114        4PZ         0.00472  -0.00741   0.01461   0.00000  -0.00001
 115 8   H  1S         -0.00003   0.00002   0.00000   0.01675   0.00001
 116        2S         -0.00002   0.00008   0.00000  -0.02048  -0.00186
 117        3S         -0.00003   0.00010   0.00003   0.67718   0.02790
 118        4PX        -0.00014  -0.00017   0.00000   0.00637  -0.00170
 119        4PY        -0.00010  -0.00012   0.00000   0.01252   0.00149
 120        4PZ         0.01245   0.01548  -0.00023   0.00017  -0.00001
 121 9   H  1S          0.00002   0.00000   0.00000   0.01755  -0.00144
 122        2S          0.00003  -0.00002  -0.00001  -0.01661   0.05028
 123        3S          0.00001  -0.00008  -0.00004   0.72330  -1.04076
 124        4PX        -0.00006   0.00009   0.00015   0.01536  -0.02042
 125        4PY        -0.00004   0.00006   0.00011   0.00069   0.00012
 126        4PZ         0.00581  -0.00778  -0.01440   0.00017  -0.00022
 127 10  H  1S          0.00002   0.00000   0.00000   0.01758  -0.00155
 128        2S          0.00003   0.00001   0.00001  -0.01651   0.05107
 129        3S          0.00003   0.00006  -0.00004   0.72579  -1.07636
 130        4PX         0.00005   0.00008  -0.00016   0.00851  -0.01238
 131        4PY         0.00003   0.00006  -0.00011  -0.01287   0.01705
 132        4PZ        -0.00472  -0.00741   0.01461   0.00000  -0.00001
 133 11  H  1S         -0.00003  -0.00002   0.00000   0.01675  -0.00001
 134        2S         -0.00002  -0.00008   0.00000  -0.02048   0.00186
 135        3S         -0.00003  -0.00010  -0.00003   0.67718  -0.02790
 136        4PX         0.00014  -0.00017   0.00000  -0.00637  -0.00170
 137        4PY         0.00010  -0.00012   0.00000  -0.01252   0.00149
 138        4PZ        -0.01245   0.01548  -0.00023  -0.00017  -0.00001
 139 12  H  1S          0.00002   0.00000   0.00000   0.01755   0.00144
 140        2S          0.00003   0.00002   0.00001  -0.01661  -0.05028
 141        3S          0.00001   0.00008   0.00004   0.72330   1.04076
 142        4PX         0.00006   0.00009   0.00015  -0.01536  -0.02042
 143        4PY         0.00004   0.00006   0.00011  -0.00069   0.00012
 144        4PZ        -0.00581  -0.00778  -0.01440  -0.00017  -0.00022
                          26        27        28        29        30
                           V         V         V         V         V
     Eigenvalues --     0.13237   0.16471   0.16729   0.19041   0.22420
   1 1   C  1S          0.00759   0.02313  -0.01264  -0.02006   0.00000
   2        2S          0.01209   0.03857  -0.02118  -0.03534   0.00000
   3        2PX         0.01937   0.03732   0.00358  -0.01717  -0.00136
   4        2PY        -0.03708  -0.03461   0.03383   0.02560  -0.00095
   5        2PZ        -0.00007   0.00014   0.00028   0.00001   0.12645
   6        3S         -0.02112  -0.08906   0.05030   0.15053  -0.00001
   7        3PX         0.02628   0.00927   0.00670  -0.01472  -0.00182
   8        3PY        -0.00987  -0.00361   0.00828   0.02406  -0.00127
   9        3PZ         0.00020   0.00006   0.00011   0.00002   0.16908
  10        4S         -0.35151  -0.76227   0.41333  -1.75594   0.00005
  11        4PX         0.21744   0.51157  -0.06927  -1.09079  -0.00784
  12        4PY        -0.24069  -0.57550   0.45220   1.67308  -0.00555
  13        4PZ         0.00057   0.00116   0.00267   0.00081   0.73607
  14        5D 0       -0.00090  -0.00353   0.00198   0.01544   0.00004
  15        5D+1        0.00003   0.00006  -0.00005  -0.00041  -0.00760
  16        5D-1       -0.00021   0.00006  -0.00001  -0.00028   0.01432
  17        5D+2        0.01049  -0.00081  -0.00171  -0.00397   0.00019
  18        5D-2       -0.01330   0.00033   0.00028  -0.01029  -0.00009
  19 2   C  1S          0.01395  -0.00041   0.02710   0.02075   0.00000
  20        2S          0.02221  -0.00068   0.04543   0.03667  -0.00001
  21        2PX        -0.03801  -0.02161  -0.02619  -0.01564   0.00129
  22        2PY        -0.07441   0.01202  -0.05062  -0.03071   0.00091
  23        2PZ        -0.00098  -0.00014  -0.00067  -0.00043  -0.11960
  24        3S         -0.03322   0.00151  -0.10426  -0.15263   0.00002
  25        3PX        -0.01972  -0.01189  -0.00419  -0.01331   0.00166
  26        3PY        -0.03998   0.00629  -0.00794  -0.02600   0.00117
  27        3PZ        -0.00052  -0.00008  -0.00011  -0.00037  -0.15288
  28        4S         -0.83354   0.01336  -0.89370   1.72306  -0.00009
  29        4PX        -0.23463  -0.17081  -0.40038  -0.91944   0.00782
  30        4PY        -0.46344   0.10199  -0.77992  -1.80459   0.00555
  31        4PZ        -0.00613  -0.00104  -0.01029  -0.02362  -0.72157
  32        5D 0        0.00063   0.00003  -0.00231  -0.01413  -0.00034
  33        5D+1       -0.00002  -0.00002   0.00004   0.00026  -0.00782
  34        5D-1        0.00022   0.00000   0.00004   0.00005  -0.01530
  35        5D+2       -0.01040  -0.00146  -0.00048   0.00585  -0.00003
[...]
  14. BD (   1) C   5 - H  11        /144. BD*(   1) C   6 - H  12            0.33    1.08    0.024
  15. BD (   1) C   6 - H  12        / 22. RY*(   1) C   1                    0.79    1.80    0.048
  15. BD (   1) C   6 - H  12        / 74. RY*(   1) C   5                    0.77    1.94    0.049
  15. BD (   1) C   6 - H  12        /130. BD*(   1) C   1 - C   2            2.05    1.25    0.064
  15. BD (   1) C   6 - H  12        /131. BD*(   1) C   1 - C   6            0.45    1.24    0.030
  15. BD (   1) C   6 - H  12        /133. BD*(   1) C   1 - H   7            0.36    1.10    0.025
  15. BD (   1) C   6 - H  12        /139. BD*(   1) C   4 - C   5            2.12    1.25    0.065
  15. BD (   1) C   6 - H  12        /142. BD*(   1) C   5 - C   6            0.44    1.25    0.029
  15. BD (   1) C   6 - H  12        /143. BD*(   1) C   5 - H  11            0.37    1.11    0.025
  16. CR (   1) C   1                / 36. RY*(   2) C   2                    0.67   11.97    0.113
  16. CR (   1) C   1                / 88. RY*(   2) C   6                    0.75   11.87    0.119
  16. CR (   1) C   1                /101. RY*(   2) H   7                    0.29   12.41    0.076
  16. CR (   1) C   1                /134. BD*(   1) C   2 - C   3            0.47   11.05    0.091
  16. CR (   1) C   1                /136. BD*(   1) C   2 - H   8            0.25   10.91    0.067
  16. CR (   1) C   1                /142. BD*(   1) C   5 - C   6            0.46   11.05    0.091
  16. CR (   1) C   1                /144. BD*(   1) C   6 - H  12            0.25   10.90    0.066
  17. CR (   1) C   2                / 23. RY*(   2) C   1                    0.68   11.83    0.114
  17. CR (   1) C   2                / 49. RY*(   2) C   3                    0.69   11.84    0.114
  17. CR (   1) C   2                /106. RY*(   2) H   8                    0.29   12.65    0.076
  17. CR (   1) C   2                /131. BD*(   1) C   1 - C   6            0.49   11.01    0.093
  17. CR (   1) C   2                /133. BD*(   1) C   1 - H   7            0.26   10.87    0.067
  17. CR (   1) C   2                /137. BD*(   1) C   3 - C   4            0.49   11.01    0.093
  17. CR (   1) C   2                /138. BD*(   1) C   3 - H   9            0.26   10.87    0.067
  18. CR (   1) C   3                / 36. RY*(   2) C   2                    0.68   11.97    0.114
  18. CR (   1) C   3                / 62. RY*(   2) C   4                    0.76   11.86    0.120
  18. CR (   1) C   3                /111. RY*(   2) H   9                    0.31   12.66    0.079
  18. CR (   1) C   3                /130. BD*(   1) C   1 - C   2            0.47   11.05    0.091
  18. CR (   1) C   3                /136. BD*(   1) C   2 - H   8            0.25   10.90    0.067
  18. CR (   1) C   3                /139. BD*(   1) C   4 - C   5            0.46   11.05    0.091
  18. CR (   1) C   3                /141. BD*(   1) C   4 - H  10            0.25   10.90    0.066
  19. CR (   1) C   4                / 49. RY*(   2) C   3                    0.75   11.87    0.119
  19. CR (   1) C   4                / 75. RY*(   2) C   5                    0.67   11.97    0.113
  19. CR (   1) C   4                /116. RY*(   2) H  10                    0.29   12.41    0.076
  19. CR (   1) C   4                /134. BD*(   1) C   2 - C   3            0.46   11.05    0.091
  19. CR (   1) C   4                /138. BD*(   1) C   3 - H   9            0.25   10.90    0.066
  19. CR (   1) C   4                /142. BD*(   1) C   5 - C   6            0.47   11.05    0.091
  19. CR (   1) C   4                /143. BD*(   1) C   5 - H  11            0.25   10.91    0.067
  20. CR (   1) C   5                / 62. RY*(   2) C   4                    0.68   11.83    0.114
  20. CR (   1) C   5                / 88. RY*(   2) C   6                    0.69   11.84    0.114
  20. CR (   1) C   5                /121. RY*(   2) H  11                    0.29   12.65    0.076
  20. CR (   1) C   5                /131. BD*(   1) C   1 - C   6            0.49   11.01    0.093
  20. CR (   1) C   5                /137. BD*(   1) C   3 - C   4            0.49   11.01    0.093
  20. CR (   1) C   5                /141. BD*(   1) C   4 - H  10            0.26   10.87    0.067
  20. CR (   1) C   5                /144. BD*(   1) C   6 - H  12            0.26   10.87    0.067
  21. CR (   1) C   6                / 23. RY*(   2) C   1                    0.76   11.86    0.120
  21. CR (   1) C   6                / 75. RY*(   2) C   5                    0.68   11.97    0.114
  21. CR (   1) C   6                /126. RY*(   2) H  12                    0.31   12.66    0.079
  21. CR (   1) C   6                /130. BD*(   1) C   1 - C   2            0.46   11.05    0.091
  21. CR (   1) C   6                /133. BD*(   1) C   1 - H   7            0.25   10.90    0.066
  21. CR (   1) C   6                /139. BD*(   1) C   4 - C   5            0.47   11.05    0.091
  21. CR (   1) C   6                /143. BD*(   1) C   5 - H  11            0.25   10.90    0.067
 132. BD*(   2) C   1 - C   6        / 24. RY*(   3) C   1                    1.53    0.75    0.100
 132. BD*(   2) C   1 - C   6        / 89. RY*(   3) C   6                    1.54    0.75    0.100
 132. BD*(   2) C   1 - C   6        /135. BD*(   2) C   2 - C   3          115.12    0.02    0.100
 132. BD*(   2) C   1 - C   6        /140. BD*(   2) C   4 - C   5          118.64    0.02    0.100
 135. BD*(   2) C   2 - C   3        / 37. RY*(   3) C   2                    1.89    0.54    0.101
 135. BD*(   2) C   2 - C   3        / 50. RY*(   3) C   3                    0.57    0.67    0.062
 135. BD*(   2) C   2 - C   3        / 51. RY*(   4) C   3                    0.37    1.50    0.075
 135. BD*(   2) C   2 - C   3        / 63. RY*(   3) C   4                    0.30    0.67    0.045
 140. BD*(   2) C   4 - C   5        / 50. RY*(   3) C   3                    0.30    0.67    0.045
 140. BD*(   2) C   4 - C   5        / 63. RY*(   3) C   4                    0.56    0.67    0.062
 140. BD*(   2) C   4 - C   5        / 64. RY*(   4) C   4                    0.37    1.50    0.075
 140. BD*(   2) C   4 - C   5        / 76. RY*(   3) C   5                    1.91    0.54    0.102


 Natural Bond Orbitals (Summary):

                                                            Principal Delocalizations
           NBO                        Occupancy    Energy   (geminal,vicinal,remote)
 ====================================================================================
 Molecular unit  1  (C6H6)
     1. BD (   1) C   1 - C   2          0.98812    -0.70594  134(g),131(g),144(v),138(v)
                                                    136(g),49(v),133(g),88(v)
                                                    87(v),48(v),105(v)
     2. BD (   1) C   1 - C   6          0.98854    -0.71167  142(g),130(g),136(v),143(v)
                                                    144(g),133(g),36(v),75(v)
                                                    35(v),74(v),125(v)
     3. BD (   2) C   1 - C   6          0.84799    -0.24100  135(v),140(v),37(v),76(v)
     4. BD (   1) C   1 - H   7          0.98990    -0.53592  134(v),142(v),87(v),35(v)
                                                    131(g),130(g),136(v),144(v)
     5. BD (   1) C   2 - C   3          0.98797    -0.70558  130(g),137(g),141(v),133(v)
                                                    136(g),23(v),138(g),62(v)
                                                    61(v),22(v),105(v),110(v)
     6. BD (   2) C   2 - C   3          0.82396    -0.22565  132(v),140(v),63(v),25(v)
                                                    50(g)
     7. BD (   1) C   2 - H   8          0.98960    -0.51514  131(v),137(v),48(v),22(v)
                                                    134(g),130(g),133(v),138(v)
     8. BD (   1) C   3 - C   4          0.98854    -0.71167  134(g),139(g),143(v),136(v)
                                                    138(g),141(g),75(v),36(v)
                                                    74(v),35(v),110(v)
     9. BD (   1) C   3 - H   9          0.99008    -0.53570  130(v),139(v),61(v),35(v)
                                                    137(g),134(g),136(v),141(v)
    10. BD (   1) C   4 - C   5          0.98812    -0.70594  142(g),137(g),138(v),144(v)
                                                    143(g),88(v),141(g),49(v)
                                                    48(v),87(v),120(v)
    11. BD (   2) C   4 - C   5          0.82482    -0.22624  132(v),135(v),50(v),90(v)
                                                    63(g)
    12. BD (   1) C   4 - H  10          0.98990    -0.53592  142(v),134(v),48(v),74(v)
                                                    137(g),139(g),143(v),138(v)
    13. BD (   1) C   5 - C   6          0.98797    -0.70558  139(g),131(g),133(v),141(v)
                                                    143(g),62(v),144(g),23(v)
                                                    22(v),61(v),120(v),125(v)
    14. BD (   1) C   5 - H  11          0.98960    -0.51514  137(v),131(v),87(v),61(v)
                                                    142(g),139(g),141(v),144(v)
    15. BD (   1) C   6 - H  12          0.99008    -0.53570  139(v),130(v),22(v),74(v)
                                                    131(g),142(g),143(v),133(v)
    16. CR (   1) C   1                  0.99959   -10.33574  88(v),36(v),134(v),142(v)
                                                    101(v),136(v),144(v)
    17. CR (   1) C   2                  0.99959   -10.30460  49(v),23(v),137(v),131(v)
                                                    106(v),138(v),133(v)
    18. CR (   1) C   3                  0.99959   -10.33479  62(v),36(v),130(v),139(v)
                                                    111(v),136(v),141(v)
    19. CR (   1) C   4                  0.99959   -10.33574  49(v),75(v),142(v),134(v)
                                                    116(v),143(v),138(v)
    20. CR (   1) C   5                  0.99959   -10.30460  88(v),62(v),131(v),137(v)
                                                    121(v),144(v),141(v)
    21. CR (   1) C   6                  0.99959   -10.33479  23(v),75(v),139(v),130(v)
                                                    126(v),143(v),133(v)
    22. RY*(   1) C   1                  0.00297     1.26479   
    23. RY*(   2) C   1                  0.00097     1.52818   
    24. RY*(   3) C   1                  0.00049     0.86492   
    25. RY*(   4) C   1                  0.00021     1.56987   
    26. RY*(   5) C   1                  0.00017     0.94730   
    27. RY*(   6) C   1                  0.00005     2.62250   
    28. RY*(   7) C   1                  0.00004     6.10447   
    29. RY*(   8) C   1                  0.00002     2.71249   
    30. RY*(   9) C   1                  0.00001     2.76984   
    31. RY*(  10) C   1                  0.00000     2.79653   
    32. RY*(  11) C   1                  0.00000     1.64742   
    33. RY*(  12) C   1                  0.00000    19.83852   
    34. RY*(  13) C   1                  0.00000     2.45299   
    35. RY*(   1) C   2                  0.00284     1.40620   
    36. RY*(   2) C   2                  0.00087     1.63090   
    37. RY*(   3) C   2                  0.00044     0.67171   
    38. RY*(   4) C   2                  0.00022     1.79166   
    39. RY*(   5) C   2                  0.00016     0.92894   
    40. RY*(   6) C   2                  0.00005     3.08496   
    41. RY*(   7) C   2                  0.00001     2.48375   
    42. RY*(   8) C   2                  0.00002     3.10217   
    43. RY*(   9) C   2                  0.00001     2.78010   
    44. RY*(  10) C   2                  0.00002     4.61091   
    45. RY*(  11) C   2                  0.00000     1.67860   
    46. RY*(  12) C   2                  0.00000    20.13748   
    47. RY*(  13) C   2                  0.00000     2.83481   
    48. RY*(   1) C   3                  0.00291     1.36058   
    49. RY*(   2) C   3                  0.00097     1.53515   
    50. RY*(   3) C   3                  0.00044     0.80370   
    51. RY*(   4) C   3                  0.00023     1.63273   
    52. RY*(   5) C   3                  0.00015     0.90598   
    53. RY*(   6) C   3                  0.00005     3.29546   
    54. RY*(   7) C   3                  0.00001     2.94335   
    55. RY*(   8) C   3                  0.00002     3.15073   
    56. RY*(   9) C   3                  0.00001     2.52730   
    57. RY*(  10) C   3                  0.00002     5.08615   
    58. RY*(  11) C   3                  0.00000     2.79609   
    59. RY*(  12) C   3                  0.00000    19.23320   
    60. RY*(  13) C   3                  0.00000     1.65085   
    61. RY*(   1) C   4                  0.00297     1.26479   
    62. RY*(   2) C   4                  0.00097     1.52817   
    63. RY*(   3) C   4                  0.00044     0.80450   
    64. RY*(   4) C   4                  0.00023     1.63117   
    65. RY*(   5) C   4                  0.00017     0.94730   
    66. RY*(   6) C   4                  0.00005     2.62250   
    67. RY*(   7) C   4                  0.00004     6.10446   
    68. RY*(   8) C   4                  0.00002     2.71249   
    69. RY*(   9) C   4                  0.00001     2.76974   
    70. RY*(  10) C   4                  0.00000     2.79686   
    71. RY*(  11) C   4                  0.00000     1.64709   
    72. RY*(  12) C   4                  0.00000    19.83880   
    73. RY*(  13) C   4                  0.00000     2.45281   
    74. RY*(   1) C   5                  0.00284     1.40620   
    75. RY*(   2) C   5                  0.00087     1.63090   
    76. RY*(   3) C   5                  0.00044     0.67601   
    77. RY*(   4) C   5                  0.00021     1.78732   
    78. RY*(   5) C   5                  0.00016     0.92894   
    79. RY*(   6) C   5                  0.00005     3.08495   
    80. RY*(   7) C   5                  0.00001     2.48375   
    81. RY*(   8) C   5                  0.00002     3.10222   
    82. RY*(   9) C   5                  0.00001     2.78008   
    83. RY*(  10) C   5                  0.00002     4.61086   
    84. RY*(  11) C   5                  0.00000     1.67860   
    85. RY*(  12) C   5                  0.00000    20.13749   
    86. RY*(  13) C   5                  0.00000     2.83481   
    87. RY*(   1) C   6                  0.00291     1.36058   
    88. RY*(   2) C   6                  0.00097     1.53515   
    89. RY*(   3) C   6                  0.00049     0.86214   
    90. RY*(   4) C   6                  0.00021     1.57338   
    91. RY*(   5) C   6                  0.00015     0.90598   
    92. RY*(   6) C   6                  0.00005     3.29546   
    93. RY*(   7) C   6                  0.00001     2.94335   
    94. RY*(   8) C   6                  0.00002     3.15078   
    95. RY*(   9) C   6                  0.00001     2.52729   
    96. RY*(  10) C   6                  0.00002     5.08613   
    97. RY*(  11) C   6                  0.00000     2.79608   
    98. RY*(  12) C   6                  0.00000    19.23319   
    99. RY*(  13) C   6                  0.00000     1.65086   
   100. RY*(   1) H   7                  0.00062     0.56410   
   101. RY*(   2) H   7                  0.00006     2.07516   
   102. RY*(   3) H   7                  0.00006     1.67058   
   103. RY*(   4) H   7                  0.00004     2.04465   
   104. RY*(   5) H   7                  0.00002     2.68789   
   105. RY*(   1) H   8                  0.00102     0.47941   
   106. RY*(   2) H   8                  0.00009     2.34396   
   107. RY*(   3) H   8                  0.00004     2.06010   
   108. RY*(   4) H   8                  0.00005     1.68407   
   109. RY*(   5) H   8                  0.00001     2.70752   
   110. RY*(   1) H   9                  0.00089     0.47808   
   111. RY*(   2) H   9                  0.00010     2.32324   
   112. RY*(   3) H   9                  0.00006     1.67107   
   113. RY*(   4) H   9                  0.00004     2.04863   
   114. RY*(   5) H   9                  0.00001     2.70321   
   115. RY*(   1) H  10                  0.00062     0.56410   
   116. RY*(   2) H  10                  0.00006     2.07516   
   117. RY*(   3) H  10                  0.00006     1.67058   
   118. RY*(   4) H  10                  0.00004     2.04465   
   119. RY*(   5) H  10                  0.00002     2.68789   
   120. RY*(   1) H  11                  0.00102     0.47941   
   121. RY*(   2) H  11                  0.00009     2.34396   
   122. RY*(   3) H  11                  0.00004     2.06010   
   123. RY*(   4) H  11                  0.00005     1.68407   
   124. RY*(   5) H  11                  0.00001     2.70752   
   125. RY*(   1) H  12                  0.00089     0.47808   
   126. RY*(   2) H  12                  0.00010     2.32324   
   127. RY*(   3) H  12                  0.00006     1.67107   
   128. RY*(   4) H  12                  0.00004     2.04863   
   129. RY*(   5) H  12                  0.00001     2.70321   
   130. BD*(   1) C   1 - C   2          0.00924     0.71321   
   131. BD*(   1) C   1 - C   6          0.00952     0.70312   
   132. BD*(   2) C   1 - C   6          0.18225     0.11307  140(v),135(v),89(g),24(g)
   133. BD*(   1) C   1 - H   7          0.00784     0.56585   
   134. BD*(   1) C   2 - C   3          0.00927     0.71262   
   135. BD*(   2) C   2 - C   3          0.15798     0.13156  140(v),132(v),37(g),50(g)
                                                    51(g),63(v)
   136. BD*(   1) C   2 - H   8          0.00798     0.56991   
   137. BD*(   1) C   3 - C   4          0.00952     0.70312   
   138. BD*(   1) C   3 - H   9          0.00785     0.56548   
   139. BD*(   1) C   4 - C   5          0.00924     0.71321   
   140. BD*(   2) C   4 - C   5          0.15861     0.13114  135(v),132(v),76(g),63(g)
                                                    64(g),50(v)
   141. BD*(   1) C   4 - H  10          0.00784     0.56585   
   142. BD*(   1) C   5 - C   6          0.00927     0.71262   
   143. BD*(   1) C   5 - H  11          0.00798     0.56991   
   144. BD*(   1) C   6 - H  12          0.00785     0.56548   
       -------------------------------
              Total Lewis   20.36274  ( 96.9654%)
        Valence non-Lewis    0.60223  (  2.8678%)
        Rydberg non-Lewis    0.03503  (  0.1668%)
       -------------------------------
            Total unit  1   21.00000  (100.0000%)
           Charge unit  1    0.00000

 Test job not archived.
 1\1\GINC-LEGACY-N0\SP\UM062X\6-311G(d,p)\C6H6(1-,2)\TWS35\14-Aug-2020\
 0\\#m062x/6-311g(d,p) charge pop = nbo nosymm scf=(maxcycle=999) gfinp
 ut iop(6/7=3) scrf=(cpcm,solvent=water)\\c1ccccc1\\-1,2\C,0,-0.750153,
 1.173991,0.017275\C,0,0.640083,1.247278,0.032744\C,0,1.398782,0.079643
 ,0.032169\C,0,0.767313,-1.160999,0.016215\C,0,-0.622923,-1.234286,0.00
 0745\C,0,-1.381622,-0.066651,0.001321\H,0,-1.340765,2.082736,0.017743\
 H,0,1.132017,2.212826,0.045549\H,0,2.480944,0.136473,0.044227\H,0,1.35
 7925,-2.069745,0.015747\H,0,-1.114857,-2.199835,-0.012061\H,0,-2.46378
 4,-0.123481,-0.010737\\Version=EM64L-G09RevD.01\HF=-232.2173154\S2=0.7
 57148\S2-1=0.\S2A=0.750015\RMSD=2.179e-09\Dipole=0.,0.0000007,-0.00000
 02\Quadrupole=1.2599637,0.0030216,-1.2629853,-0.913758,0.0205327,0.000
 5963\PG=C01 [X(C6H6)]\\@


 THE DIFFERENCE BETWEEN A NOOSE AND A HALO IS ONLY 12 INCHES.
 Job cpu time:       0 days  0 hours  3 minutes 27.0 seconds.
 File lengths (MBytes):  RWF=     25 Int=      0 D2E=      0 Chk=      2 Scr=      1
 Normal termination of Gaussian 09 at Fri Aug 14 20:58:57 2020.
