 Entering Gaussian System, Link 0=g09
 Initial command:
 /ihome/crc/build/g09/g09-D.01/TAR/g09/l1.exe "/scratch/slurm-4550266/Gau-25263.inp" -scrdir="/scratch/slurm-4550266/"
 Entering Link 1 = /ihome/crc/build/g09/g09-D.01/TAR/g09/l1.exe PID=     25264.
  
 Copyright (c) 1988,1990,1992,1993,1995,1998,2003,2009,2013,
            Gaussian, Inc.  All Rights Reserved.
  
 This is part of the Gaussian(R) 09 program.  It is based on
 the Gaussian(R) 03 system (copyright 2003, Gaussian, Inc.),
 the Gaussian(R) 98 system (copyright 1998, Gaussian, Inc.),
 the Gaussian(R) 94 system (copyright 1995, Gaussian, Inc.),
 the Gaussian 92(TM) system (copyright 1992, Gaussian, Inc.),
 the Gaussian 90(TM) system (copyright 1990, Gaussian, Inc.),
 the Gaussian 88(TM) system (copyright 1988, Gaussian, Inc.),
 the Gaussian 86(TM) system (copyright 1986, Carnegie Mellon
 University), and the Gaussian 82(TM) system (copyright 1983,
 Carnegie Mellon University). Gaussian is a federally registered
 trademark of Gaussian, Inc.
  
 This software contains proprietary and confidential information,
 including trade secrets, belonging to Gaussian, Inc.
  
 This software is provided under written license and may be
 used, copied, transmitted, or stored only in accord with that
 written license.
  
 The following legend is applicable only to US Government
 contracts under FAR:
  
                    RESTRICTED RIGHTS LEGEND
  
 Use, reproduction and disclosure by the US Government is
 subject to restrictions as set forth in subparagraphs (a)
 and (c) of the Commercial Computer Software - Restricted
 Rights clause in FAR 52.227-19.
  
 Gaussian, Inc.
 340 Quinnipiac St., Bldg. 40, Wallingford CT 06492
  
  
 ---------------------------------------------------------------
 Warning -- This program may not be used in any manner that
 competes with the business of Gaussian, Inc. or will provide
 assistance to any competitor of Gaussian, Inc.  The licensee
 of this program is prohibited from giving any competitor of
 Gaussian, Inc. access to this program.  By using this program,
 the user acknowledges that Gaussian, Inc. is engaged in the
 business of creating and licensing software in the field of
 computational chemistry and represents and warrants to the
 licensee that it is not a competitor of Gaussian, Inc. and that
 it will not use this program in any manner prohibited above.
 ---------------------------------------------------------------
  

 Cite this work as:
 Gaussian 09, Revision D.01,
 M. J. Frisch, G. W. Trucks, H. B. Schlegel, G. E. Scuseria, 
 M. A. Robb, J. R. Cheeseman, G. Scalmani, V. Barone, B. Mennucci, 
 G. A. Petersson, H. Nakatsuji, M. Caricato, X. Li, H. P. Hratchian, 
 A. F. Izmaylov, J. Bloino, G. Zheng, J. L. Sonnenberg, M. Hada, 
 M. Ehara, K. Toyota, R. Fukuda, J. Hasegawa, M. Ishida, T. Nakajima, 
 Y. Honda, O. Kitao, H. Nakai, T. Vreven, J. A. Montgomery, Jr., 
 J. E. Peralta, F. Ogliaro, M. Bearpark, J. J. Heyd, E. Brothers, 
 K. N. Kudin, V. N. Staroverov, T. Keith, R. Kobayashi, J. Normand, 
 K. Raghavachari, A. Rendell, J. C. Burant, S. S. Iyengar, J. Tomasi, 
 M. Cossi, N. Rega, J. M. Millam, M. Klene, J. E. Knox, J. B. Cross, 
 V. Bakken, C. Adamo, J. Jaramillo, R. Gomperts, R. E. Stratmann, 
 O. Yazyev, A. J. Austin, R. Cammi, C. Pomelli, J. W. Ochterski, 
 R. L. Martin, K. Morokuma, V. G. Zakrzewski, G. A. Voth, 
 P. Salvador, J. J. Dannenberg, S. Dapprich, A. D. Daniels, 
 O. Farkas, J. B. Foresman, J. V. Ortiz, J. Cioslowski, 
 and D. J. Fox, Gaussian, Inc., Wallingford CT, 2013.
 
 ******************************************
 Gaussian 09:  EM64L-G09RevD.01 24-Apr-2013
                14-Aug-2020 
 ******************************************
 %Nproc=2
 Will use up to    2 processors via shared memory.
 %mem=6GB
 ----------------------------------------------------------------------
 #m062x/6-311g(d,p) charge pop = nbo nosymm scf=(maxcycle=999) gfinput 
 iop(6/7=3) scrf=(cpcm,solvent=water)
 ----------------------------------------------------------------------
 1/18=10,28=-2,38=1,125=101/1;
 2/12=2,15=1,17=6,18=5,40=1/2;
 3/5=4,6=6,7=101,11=2,16=1,24=10,25=1,30=1,70=2101,72=1,74=-55/1,2,3;
 4//1;
 5/5=2,7=999,38=5,53=1/2;
 6/7=3,8=2,9=2,10=2,28=1,40=1/1,7;
 99/5=1,9=1/99;
 ---------
 Oc1ccccc1
 ---------
 Symbolic Z-matrix:
 Charge =  1 Multiplicity = 2
 O                     1.06301   0.03211   0.14781 
 C                     2.41833   0.11031   0.05553 
 C                     3.09922   1.32624   0.02699 
 C                     4.48745   1.3356   -0.06712 
 C                     5.20161   0.14378  -0.13281 
 C                     4.51163  -1.06641  -0.10428 
 C                     3.12623  -1.08954  -0.01046 
 H                     0.68906   0.9186    0.18323 
 H                     2.54385   2.25726   0.07735 
 H                     5.01025   2.28492  -0.08901 
 H                     6.2819    0.15667  -0.206 
 H                     5.05533  -2.00287  -0.15549 
 H                     2.57589  -2.0226    0.01254 
 
 Background charge distribution read from input stream:
                          Input orientation:                          
 ---------------------------------------------------------------------
 Center     Atomic      Atomic             Coordinates (Angstroms)
 Number     Number       Type             X           Y           Z
 ---------------------------------------------------------------------
      1          8           0        1.063008    0.032112    0.147809
      2          6           0        2.418329    0.110307    0.055526
      3          6           0        3.099219    1.326241    0.026994
      4          6           0        4.487454    1.335604   -0.067123
      5          6           0        5.201612    0.143775   -0.132811
      6          6           0        4.511633   -1.066409   -0.104275
      7          6           0        3.126230   -1.089545   -0.010458
      8          1           0        0.689062    0.918604    0.183229
      9          1           0        2.543845    2.257258    0.077353
     10          1           0        5.010249    2.284922   -0.089008
     11          1           0        6.281904    0.156668   -0.206001
     12          1           0        5.055326   -2.002869   -0.155491
     13          1           0        2.575888   -2.022598    0.012537
 ---------------------------------------------------------------------
                    Distance matrix (angstroms):
                    1          2          3          4          5
     1  O    0.000000
     2  C    1.360708   0.000000
     3  C    2.415682   1.393887   0.000000
     4  C    3.670438   2.407836   1.391453   0.000000
     5  C    4.149610   2.789849   2.417399   1.390968   0.000000
     6  C    3.628127   2.406682   2.781532   2.402422   1.393352
     7  C    2.353731   1.394676   2.416227   2.781634   2.417283
     8  H    0.962787   1.913117   2.449374   3.829406   4.589482
     9  H    2.673783   2.150728   1.085251   2.155907   3.402162
    10  H    4.551038   3.386427   2.141159   1.083973   2.150128
    11  H    5.232358   3.872694   3.398775   2.151564   1.082845
    12  H    4.491296   3.385823   3.865570   3.387579   2.151742
    13  H    2.555179   2.139149   3.389514   3.864965   3.407158
                    6          7          8          9         10
     6  C    0.000000
     7  C    1.388769   0.000000
     8  H    4.316826   3.163853   0.000000
     9  H    3.866774   3.398231   2.289852   0.000000
    10  H    3.388255   3.865582   4.540220   2.472163   0.000000
    11  H    2.154095   3.398465   5.657908   4.297191   2.481987
    12  H    1.084058   2.139301   5.264409   4.950801   4.288543
    13  H    2.162187   1.083510   3.498559   4.280467   4.948854
                   11         12         13
    11  H    0.000000
    12  H    2.484078   0.000000
    13  H    4.304824   2.485203   0.000000
 Symmetry turned off by external request.
 Stoichiometry    C6H6O(1+,2)
 Framework group  C1[X(C6H6O)]
 Deg. of freedom    33
 Full point group                 C1      NOp   1
 Rotational constants (GHZ):      5.6839729      2.6331053      1.7994904
 Standard basis: 6-311G(d,p) (5D, 7F)
 AO basis set in the form of general basis input (Overlap normalization):
      1 0
 S   6 1.00       0.000000000000
      0.8588500000D+04  0.1895150083D-02
      0.1297230000D+04  0.1438590063D-01
      0.2992960000D+03  0.7073200310D-01
      0.8737710000D+02  0.2400010105D+00
      0.2567890000D+02  0.5947970261D+00
      0.3740040000D+01  0.2808020123D+00
 SP   3 1.00       0.000000000000
      0.4211750000D+02  0.1138890124D+00  0.3651139738D-01
      0.9628370000D+01  0.9208111006D+00  0.2371529830D+00
      0.2853320000D+01 -0.3274470358D-02  0.8197019412D+00
 SP   1 1.00       0.000000000000
      0.9056610000D+00  0.1000000000D+01  0.1000000000D+01
 SP   1 1.00       0.000000000000
      0.2556110000D+00  0.1000000000D+01  0.1000000000D+01
 D   1 1.00       0.000000000000
      0.1292000000D+01  0.1000000000D+01
 ****
      2 0
 S   6 1.00       0.000000000000
      0.4563240000D+04  0.1966650249D-02
      0.6820240000D+03  0.1523060193D-01
      0.1549730000D+03  0.7612690966D-01
      0.4445530000D+02  0.2608010331D+00
      0.1302900000D+02  0.6164620782D+00
      0.1827730000D+01  0.2210060280D+00
 SP   3 1.00       0.000000000000
      0.2096420000D+02  0.1146600807D+00  0.4024869267D-01
      0.4803310000D+01  0.9199996477D+00  0.2375939567D+00
      0.1459330000D+01 -0.3030682134D-02  0.8158538515D+00
 SP   1 1.00       0.000000000000
      0.4834560000D+00  0.1000000000D+01  0.1000000000D+01
 SP   1 1.00       0.000000000000
      0.1455850000D+00  0.1000000000D+01  0.1000000000D+01
 D   1 1.00       0.000000000000
      0.6260000000D+00  0.1000000000D+01
 ****
      3 0
 S   6 1.00       0.000000000000
      0.4563240000D+04  0.1966650249D-02
      0.6820240000D+03  0.1523060193D-01
      0.1549730000D+03  0.7612690966D-01
      0.4445530000D+02  0.2608010331D+00
      0.1302900000D+02  0.6164620782D+00
      0.1827730000D+01  0.2210060280D+00
 SP   3 1.00       0.000000000000
      0.2096420000D+02  0.1146600807D+00  0.4024869267D-01
      0.4803310000D+01  0.9199996477D+00  0.2375939567D+00
      0.1459330000D+01 -0.3030682134D-02  0.8158538515D+00
 SP   1 1.00       0.000000000000
      0.4834560000D+00  0.1000000000D+01  0.1000000000D+01
 SP   1 1.00       0.000000000000
      0.1455850000D+00  0.1000000000D+01  0.1000000000D+01
 D   1 1.00       0.000000000000
      0.6260000000D+00  0.1000000000D+01
 ****
      4 0
 S   6 1.00       0.000000000000
      0.4563240000D+04  0.1966650249D-02
      0.6820240000D+03  0.1523060193D-01
      0.1549730000D+03  0.7612690966D-01
      0.4445530000D+02  0.2608010331D+00
      0.1302900000D+02  0.6164620782D+00
      0.1827730000D+01  0.2210060280D+00
 SP   3 1.00       0.000000000000
      0.2096420000D+02  0.1146600807D+00  0.4024869267D-01
      0.4803310000D+01  0.9199996477D+00  0.2375939567D+00
      0.1459330000D+01 -0.3030682134D-02  0.8158538515D+00
 SP   1 1.00       0.000000000000
      0.4834560000D+00  0.1000000000D+01  0.1000000000D+01
 SP   1 1.00       0.000000000000
      0.1455850000D+00  0.1000000000D+01  0.1000000000D+01
 D   1 1.00       0.000000000000
      0.6260000000D+00  0.1000000000D+01
 ****
      5 0
 S   6 1.00       0.000000000000
      0.4563240000D+04  0.1966650249D-02
      0.6820240000D+03  0.1523060193D-01
      0.1549730000D+03  0.7612690966D-01
      0.4445530000D+02  0.2608010331D+00
      0.1302900000D+02  0.6164620782D+00
      0.1827730000D+01  0.2210060280D+00
 SP   3 1.00       0.000000000000
      0.2096420000D+02  0.1146600807D+00  0.4024869267D-01
      0.4803310000D+01  0.9199996477D+00  0.2375939567D+00
      0.1459330000D+01 -0.3030682134D-02  0.8158538515D+00
 SP   1 1.00       0.000000000000
      0.4834560000D+00  0.1000000000D+01  0.1000000000D+01
 SP   1 1.00       0.000000000000
      0.1455850000D+00  0.1000000000D+01  0.1000000000D+01
 D   1 1.00       0.000000000000
      0.6260000000D+00  0.1000000000D+01
 ****
      6 0
 S   6 1.00       0.000000000000
      0.4563240000D+04  0.1966650249D-02
      0.6820240000D+03  0.1523060193D-01
      0.1549730000D+03  0.7612690966D-01
      0.4445530000D+02  0.2608010331D+00
      0.1302900000D+02  0.6164620782D+00
      0.1827730000D+01  0.2210060280D+00
 SP   3 1.00       0.000000000000
      0.2096420000D+02  0.1146600807D+00  0.4024869267D-01
      0.4803310000D+01  0.9199996477D+00  0.2375939567D+00
      0.1459330000D+01 -0.3030682134D-02  0.8158538515D+00
 SP   1 1.00       0.000000000000
      0.4834560000D+00  0.1000000000D+01  0.1000000000D+01
 SP   1 1.00       0.000000000000
      0.1455850000D+00  0.1000000000D+01  0.1000000000D+01
 D   1 1.00       0.000000000000
      0.6260000000D+00  0.1000000000D+01
 ****
      7 0
 S   6 1.00       0.000000000000
      0.4563240000D+04  0.1966650249D-02
      0.6820240000D+03  0.1523060193D-01
      0.1549730000D+03  0.7612690966D-01
      0.4445530000D+02  0.2608010331D+00
      0.1302900000D+02  0.6164620782D+00
      0.1827730000D+01  0.2210060280D+00
 SP   3 1.00       0.000000000000
      0.2096420000D+02  0.1146600807D+00  0.4024869267D-01
      0.4803310000D+01  0.9199996477D+00  0.2375939567D+00
      0.1459330000D+01 -0.3030682134D-02  0.8158538515D+00
 SP   1 1.00       0.000000000000
      0.4834560000D+00  0.1000000000D+01  0.1000000000D+01
 SP   1 1.00       0.000000000000
      0.1455850000D+00  0.1000000000D+01  0.1000000000D+01
 D   1 1.00       0.000000000000
      0.6260000000D+00  0.1000000000D+01
 ****
      8 0
 S   3 1.00       0.000000000000
      0.3386500000D+02  0.2549381454D-01
      0.5094790000D+01  0.1903731086D+00
      0.1158790000D+01  0.8521614860D+00
 S   1 1.00       0.000000000000
      0.3258400000D+00  0.1000000000D+01
 S   1 1.00       0.000000000000
      0.1027410000D+00  0.1000000000D+01
 P   1 1.00       0.000000000000
      0.7500000000D+00  0.1000000000D+01
 ****
      9 0
 S   3 1.00       0.000000000000
      0.3386500000D+02  0.2549381454D-01
      0.5094790000D+01  0.1903731086D+00
      0.1158790000D+01  0.8521614860D+00
 S   1 1.00       0.000000000000
      0.3258400000D+00  0.1000000000D+01
 S   1 1.00       0.000000000000
      0.1027410000D+00  0.1000000000D+01
 P   1 1.00       0.000000000000
      0.7500000000D+00  0.1000000000D+01
 ****
     10 0
 S   3 1.00       0.000000000000
      0.3386500000D+02  0.2549381454D-01
      0.5094790000D+01  0.1903731086D+00
      0.1158790000D+01  0.8521614860D+00
 S   1 1.00       0.000000000000
      0.3258400000D+00  0.1000000000D+01
 S   1 1.00       0.000000000000
      0.1027410000D+00  0.1000000000D+01
 P   1 1.00       0.000000000000
      0.7500000000D+00  0.1000000000D+01
 ****
     11 0
 S   3 1.00       0.000000000000
      0.3386500000D+02  0.2549381454D-01
      0.5094790000D+01  0.1903731086D+00
      0.1158790000D+01  0.8521614860D+00
 S   1 1.00       0.000000000000
      0.3258400000D+00  0.1000000000D+01
 S   1 1.00       0.000000000000
      0.1027410000D+00  0.1000000000D+01
 P   1 1.00       0.000000000000
      0.7500000000D+00  0.1000000000D+01
 ****
     12 0
 S   3 1.00       0.000000000000
      0.3386500000D+02  0.2549381454D-01
      0.5094790000D+01  0.1903731086D+00
      0.1158790000D+01  0.8521614860D+00
 S   1 1.00       0.000000000000
      0.3258400000D+00  0.1000000000D+01
 S   1 1.00       0.000000000000
      0.1027410000D+00  0.1000000000D+01
 P   1 1.00       0.000000000000
      0.7500000000D+00  0.1000000000D+01
 ****
     13 0
 S   3 1.00       0.000000000000
      0.3386500000D+02  0.2549381454D-01
      0.5094790000D+01  0.1903731086D+00
      0.1158790000D+01  0.8521614860D+00
 S   1 1.00       0.000000000000
      0.3258400000D+00  0.1000000000D+01
 S   1 1.00       0.000000000000
      0.1027410000D+00  0.1000000000D+01
 P   1 1.00       0.000000000000
      0.7500000000D+00  0.1000000000D+01
 ****

   162 basis functions,   272 primitive gaussians,   169 cartesian basis functions
    25 alpha electrons       24 beta electrons
       nuclear repulsion energy       271.7122047021 Hartrees.
 NAtoms=   13 NActive=   13 NUniq=   13 SFac= 1.00D+00 NAtFMM=   60 NAOKFM=F Big=F
 Integral buffers will be    131072 words long.
 Raffenetti 2 integral format.
 Two-electron integral symmetry is turned off.
 ------------------------------------------------------------------------------
 Polarizable Continuum Model (PCM)
 =================================
 Model                : C-PCM.
 Atomic radii         : UFF (Universal Force Field).
 Polarization charges : Total charges.
 Charge compensation  : None.
 Solution method      : On-the-fly selection.
 Cavity type          : Scaled VdW (van der Waals Surface) (Alpha=1.100).
 Cavity algorithm     : GePol (No added spheres)
                        Default sphere list used, NSphG=   13.
                        Lebedev-Laikov grids with approx.  5.0 points / Ang**2.
                        Smoothing algorithm: Karplus/York (Gamma=1.0000).
                        Polarization charges: spherical gaussians, with
                                              point-specific exponents (IZeta= 3).
                        Self-potential: point-specific (ISelfS= 7).
                        Self-field    : sphere-specific E.n sum rule (ISelfD= 2).
 Solvent              : Water, Eps=  78.355300 Eps(inf)=   1.777849
 ------------------------------------------------------------------------------
 Spheres list:
 ISph  on   Nord     Re0    Alpha      Xe            Ye            Ze
    1   O      1    1.7500  1.100      1.063008      0.032112      0.147809
    2   C      2    1.9255  1.100      2.418329      0.110307      0.055526
    3   C      3    1.9255  1.100      3.099219      1.326241      0.026994
    4   C      4    1.9255  1.100      4.487454      1.335604     -0.067123
    5   C      5    1.9255  1.100      5.201612      0.143775     -0.132811
    6   C      6    1.9255  1.100      4.511633     -1.066409     -0.104275
    7   C      7    1.9255  1.100      3.126230     -1.089545     -0.010458
    8   H      8    1.4430  1.100      0.689062      0.918604      0.183229
    9   H      9    1.4430  1.100      2.543845      2.257258      0.077353
   10   H     10    1.4430  1.100      5.010249      2.284922     -0.089008
   11   H     11    1.4430  1.100      6.281904      0.156668     -0.206001
   12   H     12    1.4430  1.100      5.055326     -2.002869     -0.155491
   13   H     13    1.4430  1.100      2.575888     -2.022598      0.012537
 ------------------------------------------------------------------------------
 One-electron integrals computed using PRISM.
 NBasis=   162 RedAO= T EigKep=  2.17D-04  NBF=   162
 NBsUse=   162 1.00D-06 EigRej= -1.00D+00 NBFU=   162
 ExpMin= 1.03D-01 ExpMax= 8.59D+03 ExpMxC= 1.30D+03 IAcc=1 IRadAn=         1 AccDes= 0.00D+00
 Harris functional with IExCor= 1009 and IRadAn=       1 diagonalized for initial guess.
 HarFok:  IExCor= 1009 AccDes= 0.00D+00 IRadAn=         1 IDoV= 1 UseB2=F ITyADJ=14
 ICtDFT=  3500011 ScaDFX=  1.000000  1.000000  1.000000  1.000000
 FoFCou: FMM=F IPFlag=           0 FMFlag=      100000 FMFlg1=           0
         NFxFlg=           0 DoJE=T BraDBF=F KetDBF=T FulRan=T
         wScrn=  0.000000 ICntrl=     500 IOpCl=  0 I1Cent=   200000004 NGrid=           0
         NMat0=    1 NMatS0=      1 NMatT0=    0 NMatD0=    1 NMtDS0=    0 NMtDT0=    0
 Symmetry not used in FoFCou.
 Initial guess <Sx>= 0.0000 <Sy>= 0.0000 <Sz>= 0.5000 <S**2>= 0.7500 S= 0.5000
 Keep R1 and R2 ints in memory in canonical form, NReq=179969061.
 Requested convergence on RMS density matrix=1.00D-08 within 999 cycles.
 Requested convergence on MAX density matrix=1.00D-06.
 Requested convergence on             energy=1.00D-06.
 No special actions if energy rises.
 Inv3:  Mode=1 IEnd=     4022892.
 Iteration    1 A*A^-1 deviation from unit magnitude is 5.77D-15 for    497.
 Iteration    1 A*A^-1 deviation from orthogonality  is 3.10D-15 for    807    147.
 Iteration    1 A^-1*A deviation from unit magnitude is 5.77D-15 for    497.
 Iteration    1 A^-1*A deviation from orthogonality  is 2.53D-15 for   1047    906.
 Error on total polarization charges =  0.00501
 SCF Done:  E(UM062X) =  -307.181530689     A.U. after   19 cycles
            NFock= 19  Conv=0.69D-08     -V/T= 2.0037
 <Sx>= 0.0000 <Sy>= 0.0000 <Sz>= 0.5000 <S**2>= 0.7707 S= 0.5103
 <L.S>= 0.000000000000E+00
 Annihilation of the first spin contaminant:
 S**2 before annihilation     0.7707,   after     0.7502

 **********************************************************************

            Population analysis using the SCF density.

 **********************************************************************

 Alpha  occ. eigenvalues --  -19.74810 -10.70434 -10.63036 -10.61595 -10.61422
 Alpha  occ. eigenvalues --  -10.60860 -10.60541  -1.27597  -1.03762  -0.92129
 Alpha  occ. eigenvalues --   -0.91342  -0.78337  -0.75823  -0.69248  -0.64296
 Alpha  occ. eigenvalues --   -0.61328  -0.58459  -0.56905  -0.55137  -0.53900
 Alpha  occ. eigenvalues --   -0.49067  -0.48804  -0.46535  -0.37250  -0.37035
 Alpha virt. eigenvalues --   -0.03649  -0.03446   0.05698   0.06661   0.10122
 Alpha virt. eigenvalues --    0.11242   0.14078   0.14250   0.15567   0.20318
 Alpha virt. eigenvalues --    0.24390   0.26679   0.28530   0.29916   0.34695
 Alpha virt. eigenvalues --    0.37085   0.37339   0.37975   0.40124   0.41955
 Alpha virt. eigenvalues --    0.43226   0.43387   0.44015   0.44354   0.45208
 Alpha virt. eigenvalues --    0.49797   0.52527   0.52906   0.56040   0.60173
 Alpha virt. eigenvalues --    0.60988   0.61544   0.61903   0.63976   0.67133
 Alpha virt. eigenvalues --    0.69234   0.73102   0.74158   0.76504   0.79445
 Alpha virt. eigenvalues --    0.81519   0.81755   0.84154   0.87266   0.88938
 Alpha virt. eigenvalues --    0.96914   0.97951   0.98124   0.99609   1.04686
 Alpha virt. eigenvalues --    1.07879   1.08988   1.12289   1.17870   1.21972
 Alpha virt. eigenvalues --    1.26647   1.39421   1.39732   1.43188   1.44129
 Alpha virt. eigenvalues --    1.47296   1.52868   1.53739   1.55212   1.58147
 Alpha virt. eigenvalues --    1.58473   1.58559   1.61644   1.66713   1.72265
 Alpha virt. eigenvalues --    1.74039   1.76382   1.76665   1.80634   1.86718
 Alpha virt. eigenvalues --    1.87986   1.88419   1.88672   1.90887   1.91663
 Alpha virt. eigenvalues --    1.93844   1.94526   1.97620   2.00355   2.05280
 Alpha virt. eigenvalues --    2.23357   2.24533   2.27293   2.28772   2.30487
 Alpha virt. eigenvalues --    2.34781   2.42670   2.45814   2.53138   2.56152
 Alpha virt. eigenvalues --    2.57953   2.59350   2.61181   2.62585   2.64225
 Alpha virt. eigenvalues --    2.66331   2.66513   2.70656   2.77065   2.78328
 Alpha virt. eigenvalues --    2.80023   2.83956   2.88931   3.00822   3.02824
 Alpha virt. eigenvalues --    3.07231   3.09156   3.15559   3.29533   3.34409
 Alpha virt. eigenvalues --    3.38615   3.46014   3.47260   3.52961   3.62083
 Alpha virt. eigenvalues --    3.82879   3.94561   3.96595   4.04720   4.06796
 Alpha virt. eigenvalues --    4.07764   4.77341   4.83058   5.35001   5.71275
 Alpha virt. eigenvalues --   23.48622  23.90569  23.95678  24.06500  24.11438
 Alpha virt. eigenvalues --   24.19506  49.92473
  Beta  occ. eigenvalues --  -19.74273 -10.70314 -10.62831 -10.61530 -10.61345
  Beta  occ. eigenvalues --  -10.60898 -10.60594  -1.26014  -1.02850  -0.91238
  Beta  occ. eigenvalues --   -0.90434  -0.77762  -0.75156  -0.68740  -0.63676
  Beta  occ. eigenvalues --   -0.60745  -0.56530  -0.54910  -0.54135  -0.53251
  Beta  occ. eigenvalues --   -0.48527  -0.46236  -0.44344  -0.36840
  Beta virt. eigenvalues --   -0.19855  -0.01849   0.00222   0.05804   0.06809
  Beta virt. eigenvalues --    0.10175   0.11408   0.14094   0.15768   0.15939
  Beta virt. eigenvalues --    0.21071   0.24854   0.27061   0.28895   0.30403
  Beta virt. eigenvalues --    0.35143   0.37192   0.37410   0.38530   0.40485
  Beta virt. eigenvalues --    0.42446   0.43784   0.44109   0.44179   0.44363
  Beta virt. eigenvalues --    0.45536   0.50205   0.52461   0.52911   0.56694
  Beta virt. eigenvalues --    0.61068   0.61195   0.61420   0.62296   0.64149
  Beta virt. eigenvalues --    0.67481   0.69571   0.73346   0.74176   0.76864
  Beta virt. eigenvalues --    0.79772   0.82287   0.83665   0.84547   0.87576
  Beta virt. eigenvalues --    0.88960   0.97722   0.98056   0.99406   0.99700
  Beta virt. eigenvalues --    1.04878   1.08212   1.10367   1.13381   1.18959
  Beta virt. eigenvalues --    1.21599   1.27460   1.39874   1.40376   1.43557
  Beta virt. eigenvalues --    1.44926   1.48290   1.53262   1.54385   1.55577
  Beta virt. eigenvalues --    1.58550   1.59102   1.59111   1.62221   1.67066
  Beta virt. eigenvalues --    1.72814   1.74319   1.76595   1.76990   1.81260
  Beta virt. eigenvalues --    1.87990   1.88894   1.89282   1.89687   1.91256
  Beta virt. eigenvalues --    1.92685   1.94834   1.95860   1.98962   2.01176
  Beta virt. eigenvalues --    2.05725   2.24184   2.25033   2.27774   2.29781
  Beta virt. eigenvalues --    2.30721   2.35686   2.43525   2.46317   2.55421
  Beta virt. eigenvalues --    2.56839   2.58344   2.59731   2.61434   2.63166
  Beta virt. eigenvalues --    2.64270   2.66704   2.68676   2.71678   2.78267
  Beta virt. eigenvalues --    2.79507   2.83066   2.84712   2.89714   3.01790
  Beta virt. eigenvalues --    3.04593   3.08572   3.09815   3.16834   3.30289
  Beta virt. eigenvalues --    3.34778   3.39271   3.46659   3.47641   3.54093
  Beta virt. eigenvalues --    3.63190   3.83759   3.95123   3.97825   4.05781
  Beta virt. eigenvalues --    4.08252   4.08781   4.79496   4.85358   5.35636
  Beta virt. eigenvalues --    5.71645  23.48866  23.91195  23.95915  24.07277
  Beta virt. eigenvalues --   24.11630  24.19962  49.91960
     Alpha Molecular Orbital Coefficients:
                           1         2         3         4         5
                           O         O         O         O         O
     Eigenvalues --   -19.74810 -10.70434 -10.63036 -10.61595 -10.61422
   1 1   O  1S          0.55284  -0.00006   0.00000   0.00000   0.00000
   2        2S          0.46948  -0.00015   0.00001   0.00002   0.00002
   3        2PX         0.00084   0.00025   0.00001   0.00002   0.00004
   4        2PY         0.00123   0.00005  -0.00001   0.00000   0.00001
   5        2PZ        -0.00004  -0.00002   0.00000   0.00000   0.00000
   6        3S          0.00912   0.00104  -0.00013  -0.00007  -0.00009
   7        3PX        -0.00001   0.00010  -0.00007  -0.00012  -0.00018
   8        3PY        -0.00018  -0.00015   0.00002  -0.00004  -0.00002
   9        3PZ         0.00000  -0.00001   0.00001   0.00001   0.00001
  10        4S         -0.00656  -0.00370   0.00062   0.00006   0.00025
  11        4PX        -0.00167  -0.00143   0.00010  -0.00023  -0.00015
  12        4PY        -0.00013  -0.00008  -0.00005  -0.00035   0.00010
  13        4PZ         0.00011   0.00010  -0.00001   0.00001   0.00001
  14        5D 0        0.00001   0.00024   0.00001   0.00006   0.00005
  15        5D+1        0.00000   0.00004   0.00000   0.00001   0.00001
  16        5D-1        0.00001   0.00000   0.00000   0.00000   0.00000
  17        5D+2       -0.00006  -0.00018  -0.00003  -0.00008  -0.00010
  18        5D-2       -0.00009   0.00002  -0.00001  -0.00005   0.00001
  19 2   C  1S          0.00001   0.56414   0.00007  -0.00256  -0.00254
  20        2S         -0.00008   0.46379   0.00013  -0.00199  -0.00197
  21        2PX        -0.00017  -0.00116   0.00001   0.00028   0.00030
  22        2PY        -0.00002  -0.00001   0.00000   0.00065  -0.00064
  23        2PZ         0.00001   0.00008   0.00000  -0.00001  -0.00003
  24        3S          0.00065   0.01221  -0.00056  -0.00038  -0.00039
  25        3PX         0.00004   0.00202  -0.00022  -0.00073  -0.00078
  26        3PY         0.00000   0.00004   0.00000  -0.00211   0.00205
  27        3PZ         0.00000  -0.00014   0.00001   0.00002   0.00008
  28        4S         -0.00085  -0.00851   0.00432   0.00584   0.00621
  29        4PX        -0.00602  -0.00674   0.00259   0.00292   0.00348
  30        4PY        -0.00049  -0.00098   0.00019   0.00121  -0.00091
  31        4PZ         0.00041   0.00044  -0.00017  -0.00018  -0.00025
  32        5D 0       -0.00004  -0.00112  -0.00003   0.00043   0.00042
  33        5D+1        0.00000  -0.00010  -0.00001   0.00000   0.00003
  34        5D-1        0.00001   0.00003   0.00000   0.00006  -0.00009
  35        5D+2       -0.00011  -0.00055   0.00008   0.00051   0.00047
  36        5D-2       -0.00011   0.00004  -0.00001  -0.00108   0.00105
  37 3   C  1S          0.00000   0.00244  -0.00002   0.56326   0.00341
  38        2S          0.00002   0.00213   0.00005   0.46304   0.00286
  39        2PX        -0.00002  -0.00038   0.00015  -0.00020  -0.00005
  40        2PY         0.00004  -0.00062  -0.00002  -0.00037  -0.00012
  41        2PZ         0.00000   0.00002  -0.00001   0.00001   0.00000
  42        3S         -0.00019  -0.00028  -0.00017   0.01301  -0.00016
  43        3PX         0.00012   0.00140  -0.00099   0.00020   0.00030
  44        3PY        -0.00017   0.00223   0.00019   0.00003   0.00090
  45        3PZ        -0.00001  -0.00006   0.00007  -0.00002  -0.00001
  46        4S          0.00386   0.00596  -0.00494  -0.00929  -0.00378
  47        4PX         0.00225   0.00119  -0.00114  -0.00248  -0.00113
  48        4PY        -0.00203  -0.00380   0.00202   0.00488   0.00151
  49        4PZ        -0.00018  -0.00014   0.00011   0.00024   0.00010
  50        5D 0       -0.00004   0.00040   0.00004  -0.00131   0.00000
  51        5D+1        0.00000  -0.00002   0.00003  -0.00015  -0.00002
  52        5D-1        0.00001   0.00006   0.00001   0.00004   0.00002
  53        5D+2       -0.00004   0.00081  -0.00044  -0.00004   0.00023
  54        5D-2       -0.00009  -0.00115   0.00000  -0.00006  -0.00035
  55 4   C  1S          0.00000  -0.00003   0.01030   0.03003  -0.00078
  56        2S          0.00001   0.00004   0.00858   0.02481  -0.00057
  57        2PX        -0.00003  -0.00014   0.00040  -0.00071  -0.00001
  58        2PY        -0.00001   0.00000  -0.00058   0.00003  -0.00002
  59        2PZ         0.00000   0.00001  -0.00004   0.00005   0.00000
  60        3S         -0.00005  -0.00028  -0.00004   0.00039  -0.00052
  61        3PX         0.00019   0.00099  -0.00137   0.00242   0.00014
  62        3PY         0.00006   0.00012   0.00188  -0.00020   0.00028
  63        3PZ        -0.00001  -0.00007   0.00012  -0.00017  -0.00001
  64        4S         -0.00281  -0.00369   0.00641   0.00535   0.00375
  65        4PX         0.00085   0.00061  -0.00172  -0.00185  -0.00118
  66        4PY         0.00044   0.00150  -0.00388  -0.00318  -0.00211
  67        4PZ        -0.00005  -0.00002   0.00006   0.00008   0.00005
  68        5D 0       -0.00001   0.00001   0.00037   0.00034  -0.00003
  69        5D+1        0.00000   0.00003   0.00001   0.00013   0.00000
  70        5D-1        0.00000   0.00001  -0.00009   0.00002  -0.00001
  71        5D+2       -0.00003  -0.00046   0.00066  -0.00129  -0.00005
  72        5D-2       -0.00003  -0.00001   0.00106  -0.00009   0.00010
  73 5   C  1S          0.00000  -0.00008   0.56397  -0.00054  -0.00036
  74        2S          0.00002   0.00000   0.46354  -0.00038  -0.00024
  75        2PX        -0.00001  -0.00003  -0.00016  -0.00010  -0.00009
  76        2PY        -0.00001   0.00000   0.00001   0.00015  -0.00015
  77        2PZ         0.00000   0.00000   0.00001   0.00001   0.00000
  78        3S         -0.00014  -0.00050   0.01302  -0.00020  -0.00018
  79        3PX         0.00007   0.00036  -0.00011   0.00069   0.00067
  80        3PY         0.00004   0.00001   0.00002  -0.00086   0.00087
  81        3PZ         0.00000  -0.00002   0.00001  -0.00006  -0.00003
  82        4S          0.00113   0.00293  -0.01000  -0.00422  -0.00462
  83        4PX        -0.00076  -0.00206   0.00632   0.00187   0.00211
  84        4PY        -0.00010   0.00017   0.00003  -0.00016   0.00009
  85        4PZ         0.00005   0.00014  -0.00043  -0.00013  -0.00014
  86        5D 0       -0.00002  -0.00003  -0.00127   0.00005   0.00005
  87        5D+1        0.00000  -0.00001  -0.00016   0.00000  -0.00002
  88        5D-1        0.00000   0.00000   0.00003  -0.00004   0.00002
  89        5D+2        0.00003   0.00010   0.00007   0.00021   0.00023
  90        5D-2       -0.00001   0.00000  -0.00001   0.00045  -0.00044
  91 6   C  1S          0.00000  -0.00003   0.00884  -0.00068   0.02548
  92        2S          0.00002   0.00004   0.00738  -0.00049   0.02107
  93        2PX        -0.00004  -0.00013   0.00039  -0.00001  -0.00071
  94        2PY         0.00000   0.00000   0.00059   0.00002  -0.00005
  95        2PZ         0.00000   0.00001  -0.00002   0.00000   0.00005
  96        3S         -0.00010  -0.00030  -0.00006  -0.00051   0.00024
  97        3PX         0.00023   0.00097  -0.00132   0.00013   0.00243
  98        3PY        -0.00003  -0.00011  -0.00187  -0.00029   0.00026
  99        3PZ        -0.00002  -0.00007   0.00006  -0.00001  -0.00016
 100        4S         -0.00244  -0.00377   0.00655   0.00337   0.00609
 101        4PX         0.00050   0.00093  -0.00193  -0.00122  -0.00229
 102        4PY        -0.00031  -0.00099   0.00378   0.00183   0.00329
 103        4PZ        -0.00004  -0.00008   0.00019   0.00011   0.00021
 104        5D 0       -0.00002   0.00001   0.00037  -0.00003   0.00035
 105        5D+1        0.00000   0.00003  -0.00002   0.00000   0.00013
 106        5D-1        0.00000   0.00001   0.00005   0.00001   0.00001
 107        5D+2       -0.00006  -0.00045   0.00070  -0.00003  -0.00131
 108        5D-2        0.00003  -0.00001  -0.00102  -0.00010   0.00004
 109 7   C  1S          0.00000   0.00239  -0.00004  -0.00336   0.56349
 110        2S          0.00002   0.00209   0.00002  -0.00270   0.46322
 111        2PX        -0.00002  -0.00040   0.00014  -0.00006  -0.00018
 112        2PY        -0.00004   0.00060   0.00002   0.00012   0.00041
 113        2PZ         0.00000   0.00004  -0.00001   0.00001   0.00002
 114        3S         -0.00018  -0.00023  -0.00017  -0.00032   0.01307
 115        3PX         0.00018   0.00144  -0.00098   0.00033   0.00022
 116        3PY         0.00009  -0.00211  -0.00022  -0.00090  -0.00009
 117        3PZ        -0.00001  -0.00013   0.00006  -0.00004  -0.00002
 118        4S          0.00283   0.00497  -0.00490  -0.00329  -0.00992
 119        4PX         0.00201   0.00188  -0.00132  -0.00106  -0.00293
 120        4PY         0.00172   0.00294  -0.00192  -0.00114  -0.00512
 121        4PZ        -0.00011  -0.00008   0.00006   0.00005   0.00012
 122        5D 0       -0.00003   0.00040   0.00004   0.00002  -0.00131
 123        5D+1        0.00000   0.00002   0.00003  -0.00001  -0.00015
 124        5D-1       -0.00001  -0.00010   0.00001  -0.00003   0.00003
 125        5D+2        0.00003   0.00073  -0.00044   0.00021   0.00002
 126        5D-2        0.00010   0.00118  -0.00002   0.00036   0.00010
 127 8   H  1S          0.00007   0.00000  -0.00001  -0.00001  -0.00004
 128        2S          0.00022   0.00044   0.00002   0.00024   0.00015
 129        3S         -0.00025  -0.00059   0.00014  -0.00003   0.00016
 130        4PX        -0.00001   0.00022   0.00002   0.00008   0.00010
 131        4PY         0.00034  -0.00015   0.00003  -0.00006   0.00002
 132        4PZ         0.00000  -0.00002   0.00000  -0.00001  -0.00001
 133 9   H  1S         -0.00010  -0.00017  -0.00005   0.00046  -0.00005
 134        2S          0.00068  -0.00015  -0.00043  -0.00372  -0.00040
 135        3S          0.00046   0.00119  -0.00021   0.00019  -0.00013
 136        4PX         0.00000  -0.00012  -0.00010  -0.00092  -0.00007
 137        4PY        -0.00004   0.00039   0.00012   0.00150   0.00014
 138        4PZ         0.00000   0.00001   0.00001   0.00008   0.00001
 139 10  H  1S         -0.00002  -0.00007  -0.00017  -0.00015  -0.00010
 140        2S          0.00004  -0.00028   0.00005  -0.00011   0.00029
 141        3S         -0.00003  -0.00011   0.00105   0.00099   0.00052
 142        4PX        -0.00001   0.00009   0.00011   0.00025   0.00003
 143        4PY         0.00001   0.00012   0.00035   0.00035   0.00007
 144        4PZ         0.00000   0.00000   0.00000  -0.00001   0.00000
 145 11  H  1S         -0.00003  -0.00010   0.00047  -0.00006  -0.00005
 146        2S          0.00010   0.00025  -0.00386  -0.00037  -0.00040
 147        3S          0.00014   0.00048  -0.00011  -0.00013  -0.00017
 148        4PX         0.00002   0.00008   0.00176   0.00016   0.00016
 149        4PY         0.00000  -0.00001   0.00002  -0.00001   0.00002
 150        4PZ         0.00000  -0.00001  -0.00012  -0.00001  -0.00001
 151 12  H  1S         -0.00002  -0.00007  -0.00017  -0.00010  -0.00016
 152        2S          0.00007  -0.00021   0.00007   0.00027  -0.00007
 153        3S          0.00003   0.00000   0.00103   0.00048   0.00103
 154        4PX         0.00000   0.00008   0.00012   0.00004   0.00026
 155        4PY         0.00000  -0.00011  -0.00034  -0.00006  -0.00033
 156        4PZ         0.00000  -0.00001  -0.00001   0.00000  -0.00002
 157 13  H  1S         -0.00009  -0.00018  -0.00004  -0.00006   0.00046
 158        2S          0.00060  -0.00011  -0.00045  -0.00032  -0.00384
 159        3S          0.00037   0.00087  -0.00015   0.00000   0.00012
 160        4PX         0.00004  -0.00014  -0.00010  -0.00006  -0.00089
 161        4PY         0.00001  -0.00038  -0.00012  -0.00012  -0.00154
 162        4PZ         0.00000   0.00000   0.00000   0.00000   0.00004
                           6         7         8         9        10
                           O         O         O         O         O
     Eigenvalues --   -10.60860 -10.60541  -1.27597  -1.03762  -0.92129
   1 1   O  1S          0.00000   0.00000  -0.10988   0.02222  -0.02357
   2        2S          0.00001   0.00001  -0.18085   0.03697  -0.03930
   3        2PX         0.00003   0.00003   0.03211   0.01713  -0.05081
   4        2PY         0.00001  -0.00001   0.03371  -0.01288   0.03038
   5        2PZ         0.00000   0.00000  -0.00183  -0.00132   0.00385
   6        3S         -0.00006  -0.00007   0.52137  -0.11079   0.11862
   7        3PX        -0.00010  -0.00011   0.05014   0.02350  -0.07428
   8        3PY        -0.00005   0.00005   0.05587  -0.01995   0.04648
   9        3PZ         0.00001   0.00001  -0.00281  -0.00183   0.00564
  10        4S         -0.00015  -0.00012   0.39273  -0.08062   0.09435
  11        4PX         0.00015   0.00023   0.03919   0.01450  -0.04172
  12        4PY         0.00007  -0.00030   0.01995  -0.00878   0.02245
  13        4PZ        -0.00001  -0.00002  -0.00247  -0.00110   0.00314
  14        5D 0        0.00001   0.00002  -0.00806   0.00059   0.00005
  15        5D+1        0.00000   0.00000  -0.00118  -0.00006   0.00043
  16        5D-1        0.00000   0.00000   0.00024  -0.00014   0.00025
  17        5D+2       -0.00001  -0.00002   0.00276   0.00214  -0.00652
  18        5D-2       -0.00002   0.00001  -0.00174   0.00159  -0.00267
  19 2   C  1S          0.00015   0.00013  -0.04474  -0.04629   0.06204
  20        2S          0.00018   0.00017  -0.07126  -0.07468   0.10082
  21        2PX         0.00005   0.00005  -0.04945   0.04737  -0.03090
  22        2PY         0.00007  -0.00007  -0.00033  -0.00053   0.02384
  23        2PZ         0.00000   0.00000   0.00340  -0.00324   0.00245
  24        3S         -0.00021  -0.00024   0.18136   0.20120  -0.27747
  25        3PX        -0.00041  -0.00042  -0.08431   0.06638  -0.03495
  26        3PY        -0.00059   0.00061  -0.00010  -0.00088   0.03558
  27        3PZ         0.00002   0.00004   0.00580  -0.00454   0.00289
  28        4S         -0.00522  -0.00514   0.06226   0.09270  -0.14973
  29        4PX        -0.00201  -0.00197   0.06720   0.03089  -0.04248
  30        4PY        -0.00081   0.00101   0.01402   0.00636   0.00378
  31        4PZ         0.00012   0.00015  -0.00442  -0.00203   0.00298
  32        5D 0        0.00004   0.00004  -0.01217  -0.00750   0.00748
  33        5D+1       -0.00001   0.00000  -0.00283  -0.00063   0.00054
  34        5D-1        0.00002  -0.00003   0.00004   0.00019  -0.00029
  35        5D+2        0.00012   0.00010   0.01991  -0.00355   0.00525
  36        5D-2       -0.00032   0.00033  -0.00034   0.00077   0.00035
  37 3   C  1S         -0.03017   0.00039  -0.00906  -0.04906   0.01344
  38        2S         -0.02469   0.00039  -0.01450  -0.07852   0.02161
  39        2PX         0.00071   0.00001  -0.00726   0.01486   0.03481
  40        2PY         0.00008  -0.00002  -0.00754  -0.02755   0.02736
  41        2PZ        -0.00005   0.00000   0.00039  -0.00141  -0.00196
  42        3S         -0.00099  -0.00046   0.03908   0.20299  -0.05710
  43        3PX        -0.00232  -0.00015  -0.01248   0.02225   0.05323
  44        3PY        -0.00023   0.00025  -0.01323  -0.04109   0.04032
  45        3PZ         0.00015   0.00001   0.00066  -0.00211  -0.00303
  46        4S          0.00720   0.00353  -0.03773   0.07176  -0.00363
  47        4PX         0.00222   0.00174  -0.02411   0.00291   0.02039
  48        4PY        -0.00385  -0.00191   0.02193   0.00020  -0.00107
  49        4PZ        -0.00021  -0.00014   0.00197  -0.00019  -0.00141
  50        5D 0        0.00046  -0.00002  -0.00149  -0.00882   0.00165
  51        5D+1        0.00014   0.00000  -0.00010  -0.00097  -0.00055
  52        5D-1        0.00001   0.00001  -0.00032   0.00026   0.00024
  53        5D+2       -0.00124  -0.00005  -0.00003  -0.00111   0.00961
  54        5D-2        0.00001  -0.00008   0.00524  -0.00039  -0.00622
  55 4   C  1S          0.56316   0.00219  -0.00160  -0.04918  -0.04881
  56        2S          0.46299   0.00185  -0.00261  -0.07842  -0.07824
  57        2PX         0.00000   0.00006  -0.00109  -0.01290   0.02593
  58        2PY        -0.00023  -0.00011  -0.00073  -0.02706  -0.02762
  59        2PZ         0.00000  -0.00001   0.00006   0.00048  -0.00216
  60        3S          0.01309  -0.00010   0.00748   0.20186   0.20415
  61        3PX        -0.00020  -0.00035  -0.00468  -0.01975   0.03905
  62        3PY        -0.00012   0.00085  -0.00189  -0.04039  -0.04071
  63        3PZ         0.00001   0.00004   0.00029   0.00075  -0.00324
  64        4S         -0.01032  -0.00520   0.03053   0.08554   0.08392
  65        4PX         0.00303   0.00125  -0.00765  -0.00620   0.01272
  66        4PY         0.00577   0.00195  -0.00106  -0.01265  -0.00803
  67        4PZ        -0.00012  -0.00006   0.00050   0.00024  -0.00097
  68        5D 0       -0.00132   0.00002  -0.00028  -0.00828  -0.00559
  69        5D+1       -0.00016  -0.00001  -0.00006  -0.00098  -0.00040
  70        5D-1        0.00004  -0.00003  -0.00008   0.00025   0.00071
  71        5D+2        0.00005   0.00020   0.00066  -0.00006  -0.00537
  72        5D-2       -0.00006   0.00035   0.00107  -0.00059  -0.00730
  73 5   C  1S         -0.01039  -0.00901  -0.00093  -0.05171  -0.06944
  74        2S         -0.00844  -0.00730  -0.00160  -0.08318  -0.11232
  75        2PX        -0.00031  -0.00029  -0.00083  -0.03024  -0.01425
  76        2PY         0.00062  -0.00062   0.00001   0.00014   0.01352
  77        2PZ         0.00003   0.00001   0.00006   0.00204   0.00115
  78        3S         -0.00050  -0.00045   0.00537   0.21707   0.29644
  79        3PX         0.00096   0.00090  -0.00261  -0.04612  -0.02147
  80        3PY        -0.00206   0.00203  -0.00009  -0.00001   0.02089
  81        3PZ        -0.00010  -0.00003   0.00017   0.00311   0.00173
  82        4S          0.00674   0.00675  -0.00350   0.09329   0.16924
  83        4PX        -0.00442  -0.00446   0.00679  -0.00983  -0.01832
  84        4PY         0.00039  -0.00048  -0.00119  -0.00032   0.00602
  85        4PZ         0.00031   0.00030  -0.00047   0.00066   0.00132
  86        5D 0        0.00041   0.00041  -0.00013  -0.00839  -0.00769
  87        5D+1        0.00003  -0.00001   0.00002  -0.00097  -0.00065
  88        5D-1       -0.00009   0.00005   0.00001   0.00022   0.00050
  89        5D+2        0.00054   0.00058  -0.00051  -0.00026  -0.00452
  90        5D-2        0.00112  -0.00107  -0.00002  -0.00005  -0.00350
  91 6   C  1S         -0.00229   0.56341  -0.00156  -0.04861  -0.01744
  92        2S         -0.00183   0.46320  -0.00256  -0.07749  -0.02791
  93        2PX         0.00005   0.00001  -0.00112  -0.01372   0.04025
  94        2PY         0.00011   0.00024   0.00068   0.02648   0.02832
  95        2PZ         0.00000   0.00000   0.00009   0.00133  -0.00231
  96        3S         -0.00020   0.01311   0.00753   0.19938   0.07246
  97        3PX        -0.00032  -0.00026  -0.00430  -0.02090   0.06109
  98        3PY        -0.00085   0.00006   0.00188   0.03955   0.04181
  99        3PZ         0.00001   0.00002   0.00032   0.00201  -0.00352
 100        4S         -0.00513  -0.01045   0.02880   0.08263   0.02299
 101        4PX         0.00127   0.00323  -0.00855  -0.00608   0.01822
 102        4PY        -0.00191  -0.00570  -0.00330   0.01034   0.00743
 103        4PZ        -0.00012  -0.00031   0.00053   0.00057  -0.00112
 104        5D 0        0.00003  -0.00131  -0.00024  -0.00821  -0.00210
 105        5D+1       -0.00002  -0.00016  -0.00008  -0.00096   0.00053
 106        5D-1        0.00002   0.00003   0.00007   0.00018  -0.00026
 107        5D+2        0.00022   0.00007   0.00057   0.00000  -0.00989
 108        5D-2       -0.00034   0.00004  -0.00109   0.00056   0.00684
 109 7   C  1S          0.00105  -0.02563  -0.00868  -0.04931   0.05069
 110        2S          0.00093  -0.02095  -0.01387  -0.07897   0.08169
 111        2PX         0.00001   0.00072  -0.00696   0.01364   0.02704
 112        2PY         0.00002  -0.00006   0.00728   0.02823  -0.02933
 113        2PZ         0.00000  -0.00005   0.00058  -0.00051  -0.00227
 114        3S         -0.00044  -0.00091   0.03714   0.20409  -0.21452
 115        3PX        -0.00014  -0.00240  -0.01223   0.02027   0.04199
 116        3PY        -0.00023   0.00018   0.01254   0.04257  -0.04546
 117        3PZ         0.00001   0.00017   0.00102  -0.00075  -0.00352
 118        4S          0.00372   0.00738  -0.02085   0.08154  -0.09469
 119        4PX         0.00163   0.00219  -0.02936   0.00053   0.01536
 120        4PY         0.00202   0.00391  -0.01375   0.00458  -0.00533
 121        4PZ        -0.00008  -0.00009   0.00181   0.00004  -0.00114
 122        5D 0       -0.00003   0.00046  -0.00137  -0.00885   0.00643
 123        5D+1        0.00000   0.00014  -0.00027  -0.00095   0.00040
 124        5D-1        0.00000   0.00001   0.00039   0.00024  -0.00082
 125        5D+2       -0.00004  -0.00126   0.00046  -0.00144   0.00697
 126        5D-2        0.00007  -0.00007  -0.00525   0.00015   0.00808
 127 8   H  1S         -0.00004  -0.00002   0.08216  -0.02752   0.04939
 128        2S          0.00011   0.00018   0.05819  -0.02403   0.04716
 129        3S         -0.00001  -0.00002   0.00076   0.00129   0.00267
 130        4PX         0.00005   0.00000   0.01146  -0.00229   0.00260
 131        4PY         0.00000  -0.00004  -0.01871   0.00650  -0.01050
 132        4PZ         0.00000   0.00000  -0.00100   0.00023  -0.00030
 133 9   H  1S         -0.00020  -0.00009   0.00477   0.01794  -0.00696
 134        2S          0.00025   0.00034   0.00073   0.01970  -0.00635
 135        3S          0.00098   0.00052  -0.00687  -0.00782   0.00534
 136        4PX        -0.00018  -0.00005   0.00041   0.00190   0.00058
 137        4PY         0.00018   0.00005  -0.00193  -0.00331   0.00202
 138        4PZ         0.00001   0.00000  -0.00006  -0.00018  -0.00001
 139 10  H  1S          0.00050  -0.00004   0.00045   0.01848   0.03016
 140        2S         -0.00379  -0.00037  -0.00122   0.02294   0.03594
 141        3S         -0.00015  -0.00022  -0.00115  -0.00292  -0.00362
 142        4PX         0.00083   0.00005   0.00003  -0.00208  -0.00195
 143        4PY         0.00148   0.00013   0.00002  -0.00394  -0.00645
 144        4PZ        -0.00003   0.00000   0.00000   0.00008   0.00004
 145 11  H  1S         -0.00019  -0.00018   0.00043   0.02030   0.04438
 146        2S          0.00019   0.00020  -0.00087   0.02285   0.05224
 147        3S          0.00103   0.00104  -0.00187  -0.00496  -0.00268
 148        4PX         0.00029   0.00029  -0.00035  -0.00453  -0.00928
 149        4PY        -0.00007   0.00008   0.00003  -0.00003   0.00042
 150        4PZ        -0.00002  -0.00002   0.00002   0.00031   0.00063
 151 12  H  1S         -0.00004   0.00050   0.00046   0.01815   0.01076
 152        2S         -0.00034  -0.00380  -0.00192   0.02230   0.01231
 153        3S         -0.00022  -0.00016  -0.00192  -0.00340  -0.00178
 154        4PX         0.00005   0.00086   0.00007  -0.00216   0.00065
 155        4PY        -0.00011  -0.00146  -0.00006   0.00383   0.00290
 156        4PZ         0.00000  -0.00008  -0.00001   0.00020   0.00000
 157 13  H  1S         -0.00009  -0.00020   0.00447   0.01814  -0.03172
 158        2S          0.00034   0.00021   0.00016   0.01961  -0.03615
 159        3S          0.00053   0.00100  -0.00525  -0.00640   0.00680
 160        4PX        -0.00004  -0.00019   0.00061   0.00184  -0.00196
 161        4PY        -0.00005  -0.00019   0.00181   0.00341  -0.00681
 162        4PZ         0.00000   0.00001  -0.00001  -0.00007   0.00003
                          11        12        13        14        15
                           O         O         O         O         O
     Eigenvalues --    -0.91342  -0.78337  -0.75823  -0.69248  -0.64296
   1 1   O  1S          0.00955  -0.00118  -0.01648   0.00363   0.01883
   2        2S          0.01594  -0.00192  -0.02756   0.00624   0.03157
   3        2PX         0.00849  -0.09020  -0.09407  -0.11506  -0.01349
   4        2PY         0.01203   0.08907   0.00931   0.08482   0.09839
   5        2PZ        -0.00039   0.00729   0.00644   0.00876   0.00185
   6        3S         -0.04849   0.00473   0.08402  -0.02183  -0.09717
   7        3PX         0.01202  -0.13410  -0.13974  -0.17189  -0.01937
   8        3PY         0.01809   0.13254   0.01409   0.12548   0.14412
   9        3PZ        -0.00054   0.01084   0.00956   0.01308   0.00268
  10        4S         -0.04049  -0.00469   0.07882  -0.01351  -0.12682
  11        4PX         0.00783  -0.07829  -0.08649  -0.10496  -0.00646
  12        4PY         0.00921   0.07744   0.00494   0.08363   0.09790
  13        4PZ        -0.00040   0.00634   0.00588   0.00805   0.00132
  14        5D 0       -0.00051  -0.00091   0.00193  -0.00054  -0.00406
  15        5D+1        0.00001   0.00081   0.00066   0.00080  -0.00001
  16        5D-1       -0.00024   0.00019   0.00069   0.00055  -0.00009
  17        5D+2       -0.00031  -0.01317  -0.00798  -0.01362  -0.00656
  18        5D-2        0.00367  -0.00037  -0.00942  -0.00575   0.00351
  19 2   C  1S         -0.01788   0.02380   0.04048  -0.01591  -0.00540
  20        2S         -0.02904   0.03936   0.06685  -0.02603  -0.00887
  21        2PX         0.01286   0.04581   0.03213   0.11496   0.00421
  22        2PY         0.06731   0.09282  -0.06688   0.00232   0.03716
  23        2PZ         0.00011  -0.00183  -0.00323  -0.00797  -0.00001
  24        3S          0.07973  -0.11265  -0.19075   0.07119   0.02710
  25        3PX         0.01628   0.07928   0.06256   0.17916   0.00371
  26        3PY         0.10017   0.13475  -0.09751   0.00329   0.05321
  27        3PZ         0.00036  -0.00355  -0.00580  -0.01243   0.00008
  28        4S          0.03598  -0.10325  -0.13802   0.04235  -0.01033
  29        4PX         0.00821  -0.01808  -0.01764   0.06225  -0.01313
  30        4PY         0.04744   0.05509  -0.05997  -0.00099   0.06185
  31        4PZ         0.00013   0.00201   0.00032  -0.00436   0.00155
  32        5D 0       -0.00206   0.00384   0.00520   0.00109   0.00160
  33        5D+1        0.00008   0.00084   0.00082   0.00082   0.00133
  34        5D-1       -0.00053   0.00062   0.00025   0.00111   0.00136
  35        5D+2       -0.00270  -0.00703  -0.00368  -0.01225  -0.01939
  36        5D-2        0.00916  -0.00896  -0.00484  -0.01398  -0.01636
  37 3   C  1S         -0.07244  -0.04443   0.00381   0.02141  -0.00325
  38        2S         -0.11676  -0.07240   0.00631   0.03499  -0.00528
  39        2PX         0.01065  -0.02762   0.08260  -0.01667  -0.09099
  40        2PY        -0.01067  -0.00059   0.04151  -0.08904   0.02192
  41        2PZ        -0.00089   0.00184  -0.00502  -0.00018   0.00639
  42        3S          0.30617   0.19181  -0.01851  -0.09523   0.01411
  43        3PX         0.01580  -0.03987   0.11977  -0.02351  -0.13168
  44        3PY        -0.01747  -0.00233   0.06096  -0.12969   0.02882
  45        3PZ        -0.00134   0.00263  -0.00727  -0.00032   0.00919
  46        4S          0.14312   0.14286   0.02497  -0.08339   0.00526
  47        4PX         0.00698  -0.01538   0.04227  -0.00541  -0.07665
  48        4PY        -0.00378  -0.02217   0.00571  -0.05565   0.02759
  49        4PZ        -0.00053   0.00071  -0.00281  -0.00047   0.00552
  50        5D 0       -0.00917  -0.00539   0.00033  -0.00068   0.00096
  51        5D+1       -0.00122  -0.00034  -0.00057   0.00080   0.00077
  52        5D-1       -0.00005  -0.00002   0.00041   0.00048  -0.00020
  53        5D+2        0.00275  -0.00356   0.00740  -0.01359  -0.00848
  54        5D-2        0.00346   0.00306  -0.00761  -0.00360   0.00467
  55 4   C  1S         -0.04471   0.03219  -0.05086   0.01515   0.00729
  56        2S         -0.07173   0.05215  -0.08257   0.02457   0.01196
  57        2PX        -0.03790  -0.05685  -0.02086   0.03052   0.08477
  58        2PY         0.00966   0.01862   0.03169  -0.07085   0.02889
  59        2PZ         0.00271   0.00412   0.00187  -0.00310  -0.00537
  60        3S          0.18714  -0.13920   0.22021  -0.06638  -0.03323
  61        3PX        -0.05699  -0.08193  -0.02790   0.04180   0.12011
  62        3PY         0.01397   0.02632   0.04632  -0.10079   0.04342
  63        3PZ         0.00407   0.00593   0.00256  -0.00430  -0.00758
  64        4S          0.09866  -0.08978   0.14463  -0.06650   0.00262
  65        4PX        -0.02039  -0.02862  -0.01021   0.01304   0.04668
  66        4PY        -0.00254   0.01555   0.00833  -0.04432   0.03210
  67        4PZ         0.00134   0.00217   0.00081  -0.00152  -0.00273
  68        5D 0       -0.00510   0.00229  -0.00414  -0.00074   0.00173
  69        5D+1       -0.00120   0.00008  -0.00077   0.00021  -0.00027
  70        5D-1       -0.00016  -0.00051   0.00008  -0.00002   0.00050
  71        5D+2        0.00932   0.00412   0.00407  -0.00402   0.00517
  72        5D-2        0.00223   0.00587  -0.00046   0.00148  -0.00912
  73 5   C  1S          0.02218   0.02842   0.04108  -0.01763  -0.01999
  74        2S          0.03591   0.04652   0.06736  -0.02916  -0.03284
  75        2PX         0.00344  -0.01302  -0.02409  -0.01830   0.11261
  76        2PY         0.04716  -0.06771   0.06021   0.03684   0.05570
  77        2PZ         0.00047  -0.00011   0.00253   0.00178  -0.00684
  78        3S         -0.09502  -0.12616  -0.18295   0.07947   0.08802
  79        3PX         0.00534  -0.01891  -0.03559  -0.02605   0.16687
  80        3PY         0.07195  -0.09920   0.08878   0.05494   0.08271
  81        3PZ         0.00071  -0.00018   0.00374   0.00258  -0.01014
  82        4S         -0.05288  -0.08134  -0.13464   0.06132   0.12411
  83        4PX         0.00561  -0.00473  -0.00800  -0.02412   0.07931
  84        4PY         0.02151  -0.03222   0.03104   0.01995   0.03634
  85        4PZ        -0.00006  -0.00015   0.00100   0.00192  -0.00488
  86        5D 0        0.00239   0.00182   0.00271  -0.00248   0.00097
  87        5D+1       -0.00001   0.00016   0.00004  -0.00070   0.00012
  88        5D-1        0.00068  -0.00065   0.00033   0.00017   0.00018
  89        5D+2        0.00175   0.00269   0.00274   0.00548  -0.00080
  90        5D-2       -0.01135   0.00837  -0.00661  -0.00288  -0.00302
  91 6   C  1S          0.06457  -0.04972   0.01128   0.03522   0.02016
  92        2S          0.10353  -0.08049   0.01834   0.05733   0.03304
  93        2PX         0.01537  -0.01210  -0.07726  -0.02692  -0.01144
  94        2PY        -0.00779  -0.01708  -0.03726   0.05790  -0.05837
  95        2PZ        -0.00116   0.00056   0.00468   0.00269  -0.00014
  96        3S         -0.27008   0.21290  -0.04936  -0.15449  -0.08879
  97        3PX         0.02323  -0.01436  -0.10994  -0.03922  -0.01532
  98        3PY        -0.01179  -0.02517  -0.05278   0.08342  -0.08418
  99        3PZ        -0.00176   0.00060   0.00666   0.00390  -0.00029
 100        4S         -0.12597   0.13345  -0.03926  -0.14343  -0.08182
 101        4PX         0.00610  -0.00919  -0.03365  -0.01503   0.00879
 102        4PY        -0.00933  -0.00218  -0.01692   0.03333  -0.05778
 103        4PZ        -0.00055   0.00059   0.00203   0.00152  -0.00150
 104        5D 0        0.00726  -0.00467   0.00073   0.00055   0.00276
 105        5D+1        0.00112  -0.00075  -0.00042   0.00011  -0.00017
 106        5D-1        0.00005  -0.00002   0.00026   0.00030  -0.00065
 107        5D+2       -0.00439   0.00326   0.00627  -0.00156   0.00881
 108        5D-2       -0.00263   0.00134  -0.00549  -0.00426   0.00646
 109 7   C  1S          0.05070   0.00531  -0.05112  -0.00863  -0.03076
 110        2S          0.08176   0.00894  -0.08333  -0.01397  -0.05011
 111        2PX        -0.02889   0.07839   0.00936  -0.01533  -0.03344
 112        2PY         0.00593  -0.02411  -0.02689   0.07096  -0.06848
 113        2PZ         0.00205  -0.00570  -0.00106   0.00206   0.00113
 114        3S         -0.21484  -0.02636   0.22244   0.03627   0.13304
 115        3PX        -0.04356   0.11453   0.01380  -0.02145  -0.05001
 116        3PY         0.00766  -0.03823  -0.04069   0.09928  -0.10172
 117        3PZ         0.00308  -0.00838  -0.00158   0.00287   0.00169
 118        4S         -0.10205   0.01312   0.15659   0.02162   0.19433
 119        4PX        -0.02398   0.03791   0.01812   0.00435  -0.02754
 120        4PY         0.00431   0.00726  -0.00127   0.05136  -0.02903
 121        4PZ         0.00170  -0.00248  -0.00127   0.00044   0.00136
 122        5D 0        0.00606   0.00051  -0.00449  -0.00197   0.00030
 123        5D+1        0.00125  -0.00019  -0.00075   0.00060   0.00016
 124        5D-1        0.00003  -0.00073   0.00004  -0.00010  -0.00006
 125        5D+2       -0.00808   0.00576   0.00331  -0.01108  -0.00142
 126        5D-2       -0.00103   0.00924   0.00037   0.00445   0.00090
 127 8   H  1S         -0.00271   0.08313   0.04865   0.08772   0.05569
 128        2S         -0.00138   0.09659   0.05352   0.10465   0.08419
 129        3S         -0.00149   0.00786   0.01440   0.02030   0.00273
 130        4PX         0.00158   0.00660  -0.00327   0.00182   0.00999
 131        4PY         0.00182  -0.01426  -0.01127  -0.01535  -0.00755
 132        4PZ        -0.00008  -0.00060   0.00009  -0.00031  -0.00078
 133 9   H  1S          0.04702   0.04802  -0.00712  -0.06506   0.05047
 134        2S          0.05687   0.06373  -0.00828  -0.08084   0.06065
 135        3S         -0.00478   0.00636   0.00233  -0.00427   0.00972
 136        4PX         0.00497   0.00284   0.00212  -0.00870  -0.00020
 137        4PY        -0.00887  -0.00882   0.00361   0.00846  -0.00813
 138        4PZ        -0.00046  -0.00031  -0.00009   0.00070  -0.00010
 139 10  H  1S          0.02816  -0.03455   0.05647  -0.04566   0.03838
 140        2S          0.03526  -0.04322   0.07273  -0.05388   0.04500
 141        3S         -0.00093  -0.00071   0.00364  -0.00401   0.00367
 142        4PX        -0.00437   0.00121  -0.00632   0.00556  -0.00077
 143        4PY        -0.00484   0.00683  -0.00862   0.00514  -0.00689
 144        4PZ         0.00023   0.00002   0.00031  -0.00030  -0.00005
 145 11  H  1S         -0.01458  -0.03294  -0.05132   0.00599   0.09943
 146        2S         -0.01750  -0.04024  -0.06294   0.01242   0.12146
 147        3S          0.00084   0.00026  -0.00158   0.00380   0.01539
 148        4PX         0.00305   0.00627   0.00916  -0.00097  -0.01348
 149        4PY         0.00186  -0.00256   0.00246   0.00150   0.00205
 150        4PZ        -0.00018  -0.00046  -0.00058   0.00009   0.00094
 151 12  H  1S         -0.04054   0.04833  -0.01427  -0.07609   0.00985
 152        2S         -0.05028   0.06176  -0.01723  -0.09415   0.00483
 153        3S          0.00269   0.00229  -0.00020  -0.00813  -0.00331
 154        4PX         0.00493  -0.00522  -0.00160   0.00655  -0.00228
 155        4PY        -0.00758   0.00767  -0.00406  -0.01082   0.00056
 156        4PZ        -0.00045   0.00047   0.00004  -0.00061   0.00016
 157 13  H  1S         -0.03320  -0.01603   0.05763  -0.02681   0.08447
 158        2S         -0.04057  -0.01941   0.07469  -0.03061   0.10401
 159        3S          0.00218   0.00459   0.00732   0.00055   0.01174
 160        4PX        -0.00425   0.00169   0.00588  -0.00376   0.00697
 161        4PY        -0.00582  -0.00543   0.00863  -0.00371   0.00941
 162        4PZ         0.00020  -0.00020  -0.00027   0.00019  -0.00034
                          16        17        18        19        20
                           O         O         O         O         O
     Eigenvalues --    -0.61328  -0.58459  -0.56905  -0.55137  -0.53900
   1 1   O  1S         -0.01528  -0.00017   0.00379   0.01456   0.02460
   2        2S         -0.02563  -0.00028   0.00644   0.02445   0.04137
   3        2PX        -0.11281   0.01474  -0.02793   0.04679   0.06921
   4        2PY        -0.07784  -0.00348   0.03056   0.09030   0.16234
   5        2PZ         0.00635   0.22422   0.00277  -0.00152  -0.00210
   6        3S          0.07870   0.00082  -0.02039  -0.07515  -0.12848
   7        3PX        -0.16633   0.02209  -0.04288   0.06846   0.10025
   8        3PY        -0.11586  -0.00518   0.04464   0.13037   0.23816
   9        3PZ         0.00934   0.33581   0.00421  -0.00223  -0.00297
  10        4S          0.09449   0.00154  -0.02102  -0.10178  -0.16656
  11        4PX        -0.12599   0.01864  -0.02947   0.06758   0.10210
  12        4PY        -0.08564  -0.00421   0.03719   0.10159   0.19281
  13        4PZ         0.00709   0.28181   0.00310  -0.00263  -0.00377
  14        5D 0        0.00499  -0.00150  -0.00027  -0.00463  -0.00828
  15        5D+1        0.00057   0.01479   0.00021  -0.00036  -0.00048
  16        5D-1        0.00080   0.01125   0.00023  -0.00002  -0.00016
  17        5D+2       -0.00231   0.00116  -0.00349  -0.00189  -0.00567
  18        5D-2       -0.01308   0.00053  -0.00241   0.00235   0.00629
  19 2   C  1S          0.01046   0.00013  -0.02983  -0.00134  -0.00394
  20        2S          0.01754   0.00021  -0.04932  -0.00229  -0.00665
  21        2PX         0.06756   0.00944   0.06252  -0.02977  -0.04343
  22        2PY        -0.08599  -0.00157  -0.02731  -0.07587  -0.03505
  23        2PZ        -0.00608   0.13291  -0.00437   0.00126   0.00292
  24        3S         -0.05114  -0.00057   0.14179   0.00676   0.01945
  25        3PX         0.11092   0.01563   0.09317  -0.04892  -0.07221
  26        3PY        -0.12684  -0.00266  -0.04089  -0.11959  -0.05386
  27        3PZ        -0.00978   0.21998  -0.00646   0.00215   0.00491
  28        4S         -0.06563  -0.00108   0.18790   0.00735   0.02481
  29        4PX         0.00848   0.00986   0.07322   0.01215   0.02119
  30        4PY        -0.12050  -0.00203  -0.02421   0.00251   0.00838
  31        4PZ        -0.00250   0.13781  -0.00502  -0.00045  -0.00085
  32        5D 0        0.00369   0.00259   0.00155  -0.00126  -0.00194
  33        5D+1        0.00207  -0.02121  -0.00024  -0.00084  -0.00060
  34        5D-1       -0.00046   0.00005   0.00025   0.00209   0.00100
  35        5D+2       -0.02123  -0.00159   0.00457   0.00302   0.00233
  36        5D-2        0.00984   0.00035  -0.00524  -0.03098  -0.01408
  37 3   C  1S         -0.02792  -0.00013   0.01857   0.01351   0.00740
  38        2S         -0.04558  -0.00021   0.03062   0.02203   0.01193
  39        2PX         0.02736   0.00358   0.03463  -0.03692   0.09405
  40        2PY         0.06258  -0.00094  -0.06191   0.11646  -0.00941
  41        2PZ        -0.00107   0.05781  -0.00307   0.00432  -0.00618
  42        3S          0.11995   0.00056  -0.08138  -0.06176  -0.02820
  43        3PX         0.03918   0.00589   0.04912  -0.05198   0.14365
  44        3PY         0.09400  -0.00151  -0.09107   0.16973  -0.01520
  45        3PZ        -0.00149   0.09420  -0.00437   0.00619  -0.00942
  46        4S          0.21069   0.00084  -0.11641  -0.11701  -0.12351
  47        4PX         0.01917   0.00318   0.04421  -0.07341   0.03098
  48        4PY         0.00915  -0.00094  -0.02511   0.12540   0.00702
  49        4PZ        -0.00127   0.05493  -0.00321   0.00695  -0.00165
  50        5D 0       -0.00075   0.00002   0.00078   0.00040   0.00008
  51        5D+1       -0.00006  -0.00305   0.00072   0.00025  -0.00051
  52        5D-1        0.00075  -0.01286  -0.00110  -0.00005  -0.00015
  53        5D+2       -0.00244  -0.00044  -0.00574  -0.00287   0.00761
  54        5D-2       -0.01004  -0.00087   0.01684   0.00054  -0.00015
  55 4   C  1S          0.02379   0.00012  -0.01754   0.00292  -0.01114
  56        2S          0.03899   0.00020  -0.02889   0.00469  -0.01832
  57        2PX        -0.07283   0.00211   0.01653   0.03858  -0.08326
  58        2PY         0.03127  -0.00071   0.11680   0.08524  -0.00983
  59        2PZ         0.00535   0.02907   0.00063  -0.00130   0.00573
  60        3S         -0.10497  -0.00053   0.07710  -0.01606   0.05099
  61        3PX        -0.10366   0.00351   0.02201   0.05705  -0.12523
  62        3PY         0.04488  -0.00113   0.17058   0.12326  -0.01518
  63        3PZ         0.00761   0.04895   0.00109  -0.00195   0.00865
  64        4S         -0.13423  -0.00048   0.11459   0.04980   0.09700
  65        4PX        -0.03282   0.00151   0.03404  -0.00353  -0.08477
  66        4PY         0.03893  -0.00042   0.07582   0.07470  -0.02567
  67        4PZ         0.00275   0.02220  -0.00116   0.00139   0.00560
  68        5D 0        0.00140   0.00047   0.00010  -0.00035  -0.00027
  69        5D+1       -0.00050  -0.00465  -0.00012   0.00053  -0.00004
  70        5D-1        0.00013  -0.00341  -0.00114   0.00045  -0.00036
  71        5D+2        0.00902  -0.00033   0.00498  -0.00944   0.00081
  72        5D-2       -0.00419  -0.00021   0.01555  -0.00463   0.00489
  73 5   C  1S         -0.01838  -0.00010   0.02404  -0.00146  -0.00152
  74        2S         -0.03031  -0.00017   0.03975  -0.00244  -0.00255
  75        2PX         0.07143   0.00204   0.07327  -0.03064  -0.04299
  76        2PY        -0.08735  -0.00002  -0.03084  -0.06272  -0.06539
  77        2PZ        -0.00616   0.02453  -0.00537   0.00126   0.00216
  78        3S          0.08135   0.00045  -0.11167   0.00827   0.00931
  79        3PX         0.10620   0.00330   0.10877  -0.04544  -0.06411
  80        3PY        -0.13075  -0.00008  -0.04617  -0.09899  -0.09660
  81        3PZ        -0.00917   0.04037  -0.00797   0.00179   0.00326
  82        4S          0.11535   0.00075  -0.13178  -0.00950  -0.01522
  83        4PX         0.04138   0.00191   0.08024  -0.01926  -0.02935
  84        4PY        -0.05249  -0.00014  -0.02031  -0.01601  -0.05711
  85        4PZ        -0.00361   0.02471  -0.00569   0.00119   0.00138
  86        5D 0       -0.00009   0.00053   0.00056   0.00000   0.00014
  87        5D+1       -0.00036  -0.00453   0.00094   0.00037   0.00014
  88        5D-1       -0.00045   0.00007   0.00001  -0.00124   0.00035
  89        5D+2        0.00639  -0.00024  -0.01255  -0.00165  -0.00316
  90        5D-2        0.00547   0.00005   0.00241   0.01857  -0.00429
  91 6   C  1S          0.01571   0.00012  -0.01651  -0.00547   0.00596
  92        2S          0.02570   0.00020  -0.02713  -0.00883   0.00982
  93        2PX         0.07942   0.00162   0.05925  -0.03606   0.10047
  94        2PY         0.04036  -0.00054  -0.07487   0.11234   0.02277
  95        2PZ        -0.00481   0.02887  -0.00509   0.00428  -0.00629
  96        3S         -0.07003  -0.00054   0.07199   0.02688  -0.02735
  97        3PX         0.11224   0.00275   0.08370  -0.05347   0.14878
  98        3PY         0.05635  -0.00088  -0.11011   0.16369   0.03377
  99        3PZ        -0.00681   0.04797  -0.00724   0.00633  -0.00927
 100        4S         -0.07465  -0.00037   0.11110   0.01072  -0.01317
 101        4PX         0.05589   0.00135   0.05918  -0.02302   0.06711
 102        4PY         0.02231  -0.00051  -0.04163   0.10523   0.01035
 103        4PZ        -0.00348   0.02488  -0.00460   0.00329  -0.00421
 104        5D 0        0.00068   0.00066   0.00004   0.00010   0.00033
 105        5D+1        0.00001  -0.00481  -0.00053  -0.00023   0.00089
 106        5D-1       -0.00059   0.00327   0.00085   0.00010  -0.00034
 107        5D+2        0.00287  -0.00023   0.00465   0.00293  -0.01101
 108        5D-2        0.00775   0.00034  -0.01344  -0.00181   0.00773
 109 7   C  1S         -0.00701  -0.00012   0.01602  -0.01003  -0.00227
 110        2S         -0.01148  -0.00020   0.02651  -0.01641  -0.00364
 111        2PX        -0.09843   0.00403  -0.01093   0.02643  -0.11513
 112        2PY         0.03224  -0.00121   0.09415   0.09268  -0.04775
 113        2PZ         0.00710   0.05721   0.00230  -0.00019   0.00736
 114        3S          0.03130   0.00053  -0.06968   0.04705   0.00732
 115        3PX        -0.14305   0.00672  -0.01791   0.03827  -0.17312
 116        3PY         0.04790  -0.00196   0.13822   0.13506  -0.07208
 117        3PZ         0.01031   0.09546   0.00353  -0.00022   0.01111
 118        4S          0.00974   0.00045  -0.12077   0.05518   0.03878
 119        4PX        -0.04466   0.00311   0.01467   0.01854  -0.10219
 120        4PY         0.01195  -0.00101   0.04339   0.08211  -0.06656
 121        4PZ         0.00315   0.04873  -0.00022   0.00018   0.00620
 122        5D 0       -0.00010   0.00071   0.00097  -0.00026   0.00062
 123        5D+1        0.00087  -0.00321   0.00030  -0.00050   0.00019
 124        5D-1        0.00017   0.01291   0.00131  -0.00028  -0.00003
 125        5D+2       -0.01274  -0.00006  -0.00683   0.00749  -0.00134
 126        5D-2        0.00009   0.00099  -0.01788   0.00309   0.00139
 127 8   H  1S          0.00063  -0.00033   0.02542   0.03816   0.06909
 128        2S         -0.00453  -0.00057   0.03111   0.06715   0.10882
 129        3S          0.01896   0.00006   0.01027   0.00557   0.00700
 130        4PX        -0.01307   0.00130  -0.00028   0.01127   0.01678
 131        4PY        -0.00398  -0.00019  -0.00450  -0.00328  -0.00693
 132        4PZ         0.00081   0.02090   0.00001  -0.00074  -0.00115
 133 9   H  1S          0.06047   0.00018  -0.07812   0.08159  -0.05363
 134        2S          0.08061   0.00016  -0.10799   0.10691  -0.07851
 135        3S          0.01489   0.00000  -0.02731   0.02337  -0.01780
 136        4PX         0.00569   0.00025  -0.00526   0.00480  -0.00109
 137        4PY        -0.00462  -0.00006   0.00758  -0.00889   0.00678
 138        4PZ        -0.00045   0.00365   0.00047  -0.00044   0.00019
 139 10  H  1S         -0.03190  -0.00029   0.10648   0.07124  -0.02600
 140        2S         -0.04563  -0.00041   0.14230   0.09670  -0.03365
 141        3S         -0.01150  -0.00010   0.03341   0.02492  -0.00590
 142        4PX        -0.00100   0.00014  -0.00833  -0.00352  -0.00080
 143        4PY         0.00519   0.00000  -0.01018  -0.00818   0.00406
 144        4PZ         0.00014   0.00172   0.00042   0.00013   0.00012
 145 11  H  1S          0.07126   0.00040   0.02756  -0.02304  -0.03354
 146        2S          0.09211   0.00053   0.03442  -0.03202  -0.04644
 147        3S          0.01776   0.00013   0.00099  -0.00869  -0.01335
 148        4PX        -0.00865   0.00004  -0.00444   0.00264   0.00353
 149        4PY        -0.00385   0.00000  -0.00146  -0.00368  -0.00233
 150        4PZ         0.00053   0.00120   0.00028  -0.00023  -0.00026
 151 12  H  1S         -0.01367  -0.00020   0.09292  -0.08571   0.01787
 152        2S         -0.01770  -0.00028   0.12465  -0.11551   0.02269
 153        3S         -0.00572  -0.00007   0.03048  -0.02562   0.00755
 154        4PX         0.00360   0.00011  -0.00567   0.00582   0.00304
 155        4PY         0.00085  -0.00005   0.00967  -0.00915   0.00403
 156        4PZ        -0.00023   0.00157   0.00054  -0.00053  -0.00013
 157 13  H  1S          0.02446   0.00031  -0.07898  -0.06397   0.08152
 158        2S          0.03265   0.00033  -0.10728  -0.08732   0.10418
 159        3S          0.01290   0.00008  -0.02949  -0.02996   0.00708
 160        4PX        -0.00366   0.00029  -0.00700  -0.00354   0.00359
 161        4PY         0.00497  -0.00005  -0.00620  -0.00705   0.00898
 162        4PZ         0.00032   0.00392   0.00039   0.00014  -0.00009
                          21        22        23        24        25
                           O         O         O         O         O
     Eigenvalues --    -0.49067  -0.48804  -0.46535  -0.37250  -0.37035
   1 1   O  1S          0.00000  -0.00123  -0.00771   0.00000  -0.00004
   2        2S          0.00000  -0.00213  -0.01297   0.00000  -0.00006
   3        2PX         0.00960   0.07251  -0.02399  -0.00064   0.00928
   4        2PY        -0.00211   0.03388  -0.05743   0.00010  -0.00171
   5        2PZ         0.15125  -0.00299   0.00054  -0.00915   0.13540
   6        3S         -0.00003   0.00796   0.03967   0.00000   0.00020
   7        3PX         0.01404   0.10598  -0.03416  -0.00093   0.01333
   8        3PY        -0.00308   0.05104  -0.08124   0.00014  -0.00245
   9        3PZ         0.22120  -0.00436   0.00076  -0.01329   0.19449
  10        4S          0.00028   0.00437   0.05957   0.00006   0.00022
  11        4PX         0.01415   0.09096  -0.04320  -0.00106   0.01537
  12        4PY        -0.00301   0.04478  -0.07435   0.00023  -0.00279
  13        4PZ         0.21966  -0.00340   0.00144  -0.01497   0.22535
  14        5D 0       -0.00032  -0.00176   0.00285   0.00000   0.00044
  15        5D+1        0.00407  -0.00021   0.00027   0.00015  -0.00257
  16        5D-1        0.00727  -0.00028  -0.00026   0.00058   0.00620
  17        5D+2        0.00035   0.00141   0.00142   0.00002  -0.00010
  18        5D-2        0.00040   0.00536   0.00247   0.00003   0.00048
  19 2   C  1S         -0.00011   0.00999   0.00114   0.00001  -0.00001
  20        2S         -0.00018   0.01670   0.00188   0.00001  -0.00001
  21        2PX        -0.00155  -0.04274   0.00828   0.00067  -0.00918
  22        2PY         0.00044   0.00693   0.11999  -0.00018   0.00194
  23        2PZ        -0.02965   0.00267   0.00111   0.00987  -0.13420
  24        3S          0.00052  -0.04889  -0.00517  -0.00002   0.00003
  25        3PX        -0.00282  -0.06494   0.01405   0.00114  -0.01576
  26        3PY         0.00076   0.00964   0.17773  -0.00031   0.00333
  27        3PZ        -0.05182   0.00396   0.00151   0.01672  -0.23057
  28        4S          0.00071  -0.05531  -0.01568  -0.00018  -0.00003
  29        4PX        -0.00117  -0.03428  -0.02960   0.00091  -0.01216
  30        4PY         0.00021   0.02782   0.10812  -0.00046   0.00236
  31        4PZ        -0.02764   0.00237   0.00350   0.01384  -0.17306
  32        5D 0        0.00348  -0.00209   0.00037   0.00063   0.00315
  33        5D+1       -0.02912  -0.00266   0.00062   0.00123  -0.02614
  34        5D-1       -0.00082  -0.00022  -0.00112   0.03026   0.00108
  35        5D+2       -0.00234   0.02994  -0.00400   0.00052  -0.00175
  36        5D-2        0.00034  -0.00248   0.01733   0.00203   0.00041
  37 3   C  1S          0.00012  -0.00735   0.00058  -0.00001   0.00003
  38        2S          0.00020  -0.01229   0.00104  -0.00002   0.00005
  39        2PX        -0.00626   0.11625  -0.02524   0.00969  -0.00522
  40        2PY         0.00114  -0.01405  -0.09737  -0.00199   0.00116
  41        2PZ        -0.07498  -0.00892   0.00040   0.14341  -0.07801
  42        3S         -0.00059   0.03720  -0.00160   0.00005  -0.00017
  43        3PX        -0.01007   0.16705  -0.03730   0.01586  -0.00862
  44        3PY         0.00192  -0.02359  -0.14172  -0.00327   0.00191
  45        3PZ        -0.12389  -0.01304   0.00064   0.23476  -0.12882
  46        4S         -0.00081   0.01532   0.02221   0.00030   0.00004
  47        4PX        -0.00730   0.12562   0.04240   0.01428  -0.00780
  48        4PY         0.00154  -0.02461  -0.11244  -0.00312   0.00152
  49        4PZ        -0.08425  -0.00983  -0.00440   0.21283  -0.11539
  50        5D 0        0.00136  -0.00011  -0.00043  -0.00146  -0.00122
  51        5D+1       -0.00994  -0.00064   0.00022   0.01121   0.01372
  52        5D-1        0.00741  -0.00031  -0.00166  -0.00537   0.01598
  53        5D+2       -0.00066   0.00828   0.00146   0.00069   0.00117
  54        5D-2        0.00063   0.00417   0.02450  -0.00053   0.00089
  55 4   C  1S         -0.00008   0.00577   0.00074   0.00001  -0.00001
  56        2S         -0.00013   0.00943   0.00111   0.00002  -0.00002
  57        2PX        -0.00552  -0.11965   0.01549   0.00801   0.00433
  58        2PY         0.00139   0.02062   0.11290  -0.00168  -0.00093
  59        2PZ        -0.09969   0.00730   0.00069   0.11772   0.06450
  60        3S          0.00033  -0.02461  -0.00450  -0.00006   0.00005
  61        3PX        -0.00926  -0.17374   0.02607   0.01325   0.00721
  62        3PY         0.00228   0.02853   0.16367  -0.00277  -0.00153
  63        3PZ        -0.16308   0.01038   0.00079   0.19456   0.10721
  64        4S          0.00135  -0.05984  -0.03228  -0.00014   0.00002
  65        4PX        -0.00689  -0.08755   0.05699   0.01104   0.00587
  66        4PY         0.00154   0.00292   0.13038  -0.00222  -0.00123
  67        4PZ        -0.11185   0.00473  -0.00184   0.16339   0.08792
  68        5D 0        0.00003  -0.00043   0.00039   0.00189  -0.00237
  69        5D+1        0.00301  -0.00149   0.00093  -0.01641   0.01689
  70        5D-1        0.01536  -0.00006  -0.00147  -0.00195  -0.01475
  71        5D+2        0.00018   0.02134  -0.00813  -0.00115   0.00094
  72        5D-2        0.00104  -0.00095   0.02295   0.00010  -0.00125
  73 5   C  1S          0.00002  -0.00101  -0.00043   0.00000  -0.00001
  74        2S          0.00003  -0.00167  -0.00069   0.00000  -0.00001
  75        2PX        -0.01003   0.13585  -0.00862  -0.00084   0.01027
  76        2PY         0.00176  -0.01587  -0.11727   0.00018  -0.00224
  77        2PZ        -0.12506  -0.01083  -0.00097  -0.01234   0.15167
  78        3S          0.00000  -0.00005   0.00172   0.00001   0.00004
  79        3PX        -0.01618   0.20137  -0.01302  -0.00139   0.01686
  80        3PY         0.00289  -0.02331  -0.17062   0.00031  -0.00367
  81        3PZ        -0.20464  -0.01626  -0.00135  -0.02022   0.24855
  82        4S         -0.00097   0.04048   0.01497   0.00010   0.00013
  83        4PX        -0.01109   0.14149  -0.01990  -0.00127   0.01511
  84        4PY         0.00212  -0.01290  -0.10362   0.00037  -0.00327
  85        4PZ        -0.14556  -0.01143   0.00002  -0.01802   0.22409
  86        5D 0       -0.00183   0.00027  -0.00011   0.00057   0.00109
  87        5D+1        0.01564  -0.00184   0.00041   0.00057  -0.00886
[...]
  17. CR (   1) O   1                / 43. RY*(   5) C   2                    0.33   21.13    0.106
  17. CR (   1) O   1                /120. RY*(   4) H   8                    0.35   21.51    0.110
  17. CR (   1) O   1                /150. BD*(   1) C   2 - C   3            0.29   20.09    0.097
  18. CR (   1) C   2                / 53. RY*(   2) C   3                    0.85   11.95    0.127
  18. CR (   1) C   2                /105. RY*(   2) C   7                    0.83   11.95    0.126
  18. CR (   1) C   2                /147. BD*(   1) O   1 - C   2            0.62   10.93    0.105
  18. CR (   1) C   2                /150. BD*(   1) C   2 - C   3            0.36   11.14    0.081
  18. CR (   1) C   2                /151. BD*(   1) C   2 - C   7            0.39   11.14    0.084
  18. CR (   1) C   2                /152. BD*(   1) C   3 - C   4            0.34   11.15    0.078
  18. CR (   1) C   2                /159. BD*(   1) C   6 - C   7            0.34   11.16    0.078
  19. CR (   1) C   3                / 39. RY*(   1) C   2                    0.85   11.76    0.127
  19. CR (   1) C   3                / 66. RY*(   2) C   4                    0.72   12.02    0.118
  19. CR (   1) C   3                /147. BD*(   1) O   1 - C   2            0.33   10.83    0.076
  19. CR (   1) C   3                /151. BD*(   1) C   2 - C   7            0.47   11.03    0.091
  19. CR (   1) C   3                /155. BD*(   1) C   4 - C   5            0.42   11.06    0.086
  20. CR (   1) C   4                / 53. RY*(   2) C   3                    0.36   11.84    0.083
  20. CR (   1) C   4                / 54. RY*(   3) C   3                    0.31   11.46    0.075
  20. CR (   1) C   4                / 79. RY*(   2) C   5                    0.68   11.97    0.114
  20. CR (   1) C   4                /128. RY*(   2) H  10                    0.28   12.47    0.075
  20. CR (   1) C   4                /150. BD*(   1) C   2 - C   3            0.42   11.03    0.087
  20. CR (   1) C   4                /157. BD*(   1) C   5 - C   6            0.36   11.05    0.080
  21. CR (   1) C   5                / 66. RY*(   2) C   4                    0.72   12.03    0.117
  21. CR (   1) C   5                / 92. RY*(   2) C   6                    0.73   12.05    0.119
  21. CR (   1) C   5                /133. RY*(   2) H  11                    0.27   12.50    0.073
  21. CR (   1) C   5                /152. BD*(   1) C   3 - C   4            0.41   11.06    0.085
  21. CR (   1) C   5                /159. BD*(   1) C   6 - C   7            0.40   11.07    0.084
  22. CR (   1) C   6                / 79. RY*(   2) C   5                    0.68   11.96    0.114
  22. CR (   1) C   6                /104. RY*(   1) C   7                    0.27   11.74    0.071
  22. CR (   1) C   6                /105. RY*(   2) C   7                    0.37   11.84    0.083
  22. CR (   1) C   6                /107. RY*(   4) C   7                    0.30   11.47    0.074
  22. CR (   1) C   6                /138. RY*(   2) H  12                    0.29   12.47    0.076
  22. CR (   1) C   6                /151. BD*(   1) C   2 - C   7            0.41   11.03    0.086
  22. CR (   1) C   6                /155. BD*(   1) C   4 - C   5            0.36   11.05    0.080
  23. CR (   1) C   7                / 40. RY*(   2) C   2                    0.91   12.00    0.132
  23. CR (   1) C   7                / 92. RY*(   2) C   6                    0.70   12.04    0.116
  23. CR (   1) C   7                /147. BD*(   1) O   1 - C   2            0.26   10.82    0.068
  23. CR (   1) C   7                /150. BD*(   1) C   2 - C   3            0.50   11.03    0.095
  23. CR (   1) C   7                /157. BD*(   1) C   5 - C   6            0.43   11.06    0.087
  24. LP (   1) O   1                / 39. RY*(   1) C   2                    1.39    2.05    0.068
  24. LP (   1) O   1                / 42. RY*(   4) C   2                    0.46    3.29    0.049
  24. LP (   1) O   1                /117. RY*(   1) H   8                    0.67    2.38    0.051
  24. LP (   1) O   1                /150. BD*(   1) C   2 - C   3            3.35    1.32    0.084
  25. LP*(   1) C   5                / 67. RY*(   3) C   4                    0.60    0.82    0.063
  25. LP*(   1) C   5                / 83. RY*(   6) C   5                    1.83    0.76    0.107
  25. LP*(   1) C   5                / 93. RY*(   3) C   6                    0.59    0.85    0.065
  25. LP*(   1) C   5                /148. BD*(   2) O   1 - C   2            1.38    0.04    0.018
  25. LP*(   1) C   5                /153. BD*(   2) C   3 - C   4           12.24    0.12    0.105
  25. LP*(   1) C   5                /160. BD*(   2) C   6 - C   7           11.38    0.12    0.102
 148. BD*(   2) O   1 - C   2        / 27. RY*(   2) O   1                    0.28    0.93    0.076
 148. BD*(   2) O   1 - C   2        / 41. RY*(   3) C   2                    0.28    1.47    0.093
 148. BD*(   2) O   1 - C   2        / 49. RY*(  11) C   2                    0.45    0.80    0.088
 148. BD*(   2) O   1 - C   2        /153. BD*(   2) C   3 - C   4            5.96    0.08    0.091
 148. BD*(   2) O   1 - C   2        /160. BD*(   2) C   6 - C   7            5.61    0.08    0.091


 Natural Bond Orbitals (Summary):

                                                            Principal Delocalizations
           NBO                        Occupancy    Energy   (geminal,vicinal,remote)
 ====================================================================================
 Molecular unit  1  (C6H6O)
     1. BD (   1) O   1 - C   2          0.99704    -1.08997  159(v),152(v),150(g),104(v)
                                                    151(g),39(g)
     2. BD (   2) O   1 - C   2          0.96289    -0.50035  160(v),153(v),118(v),106(v)
                                                    148(g),55(v)
     3. BD (   1) O   1 - H   8          0.99438    -0.89920  151(v),39(v)
     4. BD (   1) C   2 - C   3          0.99124    -0.86471  151(g),152(g),156(v),162(v)
                                                    104(v),66(v),65(v),154(g)
                                                    149(v)
     5. BD (   1) C   2 - C   7          0.98969    -0.85710  150(g),159(g),154(v),161(v)
                                                    149(v),52(v),92(v),91(v)
                                                    162(g),26(v)
     6. BD (   1) C   3 - C   4          0.98939    -0.83805  147(v),150(g),155(g),158(v)
                                                    154(g),40(v),79(v),156(g)
                                                    78(v),42(v)
     7. BD (   2) C   3 - C   4          0.86987    -0.35477  25(v),148(v),83(v),41(v)
     8. BD (   1) C   3 - H   9          0.98851    -0.64099  151(v),155(v),65(v),147(v)
                                                    39(v),152(g),156(v)
     9. BD (   1) C   4 - C   5          0.99155    -0.84221  161(v),152(g),154(v),157(g)
                                                    53(v),92(v),91(v),156(g)
                                                    158(g),52(v)
    10. BD (   1) C   4 - H  10          0.98926    -0.63044  150(v),157(v),78(v),52(v)
                                                    154(v),158(v),152(g),155(g)
    11. BD (   1) C   5 - C   6          0.99150    -0.83931  156(v),159(g),162(v),155(g)
                                                    105(v),66(v),65(v),161(g)
                                                    158(g),104(v)
    12. BD (   1) C   5 - H  11          0.98962    -0.63919  152(v),159(v),65(v),91(v)
                                                    156(v),161(v),155(g),157(g)
    13. BD (   1) C   6 - C   7          0.98987    -0.83820  147(v),157(g),151(g),158(v)
                                                    39(v),162(g),79(v),161(g)
                                                    78(v),42(v)
    14. BD (   2) C   6 - C   7          0.86473    -0.35198  25(v),148(v),83(v),41(v)
    15. BD (   1) C   6 - H  12          0.98933    -0.62879  151(v),155(v),78(v),104(v)
                                                    159(g),162(v),158(v),157(g)
    16. BD (   1) C   7 - H  13          0.98856    -0.63575  150(v),157(v),91(v),147(v)
                                                    159(g),40(v),161(v),151(g)
    17. CR (   1) O   1                  0.99988   -19.53023  39(v),120(v),43(v),150(v)
    18. CR (   1) C   2                  0.99940   -10.57401  53(v),105(v),147(g),151(g)
                                                    150(g),159(v),152(v)
    19. CR (   1) C   3                  0.99954   -10.47237  39(v),66(v),151(v),155(v)
                                                    147(v)
    20. CR (   1) C   4                  0.99960   -10.46730  79(v),150(v),157(v),53(v)
                                                    54(v),128(v)
    21. CR (   1) C   5                  0.99957   -10.48275  92(v),66(v),152(v),159(v)
                                                    133(v)
    22. CR (   1) C   6                  0.99960   -10.46461  79(v),151(v),105(v),155(v)
                                                    107(v),138(v),104(v)
    23. CR (   1) C   7                  0.99955   -10.46993  40(v),92(v),150(v),157(v)
                                                    147(v)
    24. LP (   1) O   1                  0.99097    -0.76058  150(v),39(v),117(v),42(v)
    25. LP*(   1) C   5                  0.19319    -0.08346  153(v),160(v),83(g),148(r)
                                                    67(v),93(v)
    26. RY*(   1) O   1                  0.00066     1.32156   
    27. RY*(   2) O   1                  0.00021     0.88476   
    28. RY*(   3) O   1                  0.00009     1.98998   
    29. RY*(   4) O   1                  0.00003     1.15361   
    30. RY*(   5) O   1                  0.00000    49.64160   
    31. RY*(   6) O   1                  0.00000     5.20349   
    32. RY*(   7) O   1                  0.00000     4.98955   
    33. RY*(   8) O   1                  0.00000     4.83361   
    34. RY*(   9) O   1                  0.00000     3.01110   
    35. RY*(  10) O   1                  0.00000     2.93459   
    36. RY*(  11) O   1                  0.00000     2.93401   
    37. RY*(  12) O   1                  0.00001     3.44537   
    38. RY*(  13) O   1                  0.00000     3.29458   
    39. RY*(   1) C   2                  0.00296     1.29106   
    40. RY*(   2) C   2                  0.00141     1.52526   
    41. RY*(   3) C   2                  0.00127     1.42327   
    42. RY*(   4) C   2                  0.00072     2.52993   
    43. RY*(   5) C   2                  0.00047     1.60126   
    44. RY*(   6) C   2                  0.00030     1.61223   
    45. RY*(   7) C   2                  0.00010     3.44101   
    46. RY*(   8) C   2                  0.00002     2.28091   
    47. RY*(   9) C   2                  0.00002     6.56175   
    48. RY*(  10) C   2                  0.00001     3.91687   
    49. RY*(  11) C   2                  0.00000     0.75321   
    50. RY*(  12) C   2                  0.00000     2.56175   
    51. RY*(  13) C   2                  0.00000    15.21771   
    52. RY*(   1) C   3                  0.00263     1.27281   
    53. RY*(   2) C   3                  0.00102     1.37571   
    54. RY*(   3) C   3                  0.00035     0.99195   
    55. RY*(   4) C   3                  0.00026     0.68124   
    56. RY*(   5) C   3                  0.00011     3.26229   
    57. RY*(   6) C   3                  0.00008     1.60563   
    58. RY*(   7) C   3                  0.00004     3.06629   
    59. RY*(   8) C   3                  0.00003     4.26170   
    60. RY*(   9) C   3                  0.00001     2.17412   
    61. RY*(  10) C   3                  0.00000     2.65113   
    62. RY*(  11) C   3                  0.00000     1.53179   
    63. RY*(  12) C   3                  0.00000    20.56548   
    64. RY*(  13) C   3                  0.00001     2.59164   
    65. RY*(   1) C   4                  0.00301     1.25373   
    66. RY*(   2) C   4                  0.00088     1.54921   
    67. RY*(   3) C   4                  0.00020     0.73319   
    68. RY*(   4) C   4                  0.00015     0.90352   
    69. RY*(   5) C   4                  0.00005     4.18610   
    70. RY*(   6) C   4                  0.00003     2.87746   
    71. RY*(   7) C   4                  0.00003     1.46114   
    72. RY*(   8) C   4                  0.00002     2.86702   
    73. RY*(   9) C   4                  0.00000     3.63782   
    74. RY*(  10) C   4                  0.00001     2.96732   
    75. RY*(  11) C   4                  0.00000    19.16300   
    76. RY*(  12) C   4                  0.00000     2.69426   
    77. RY*(  13) C   4                  0.00000     1.58235   
    78. RY*(   1) C   5                  0.00269     1.23844   
    79. RY*(   2) C   5                  0.00079     1.49907   
    80. RY*(   3) C   5                  0.00026     1.64608   
    81. RY*(   4) C   5                  0.00013     1.04368   
    82. RY*(   5) C   5                  0.00004     2.91855   
    83. RY*(   6) C   5                  0.00002     0.67524   
    84. RY*(   7) C   5                  0.00002     2.10488   
    85. RY*(   8) C   5                  0.00003     5.29205   
    86. RY*(   9) C   5                  0.00002     2.41106   
    87. RY*(  10) C   5                  0.00000     1.46589   
    88. RY*(  11) C   5                  0.00000     2.67537   
    89. RY*(  12) C   5                  0.00000    20.50873   
    90. RY*(  13) C   5                  0.00000     2.41766   
    91. RY*(   1) C   6                  0.00295     1.26247   
    92. RY*(   2) C   6                  0.00086     1.56943   
    93. RY*(   3) C   6                  0.00018     0.77027   
    94. RY*(   4) C   6                  0.00014     0.92965   
    95. RY*(   5) C   6                  0.00005     4.31100   
    96. RY*(   6) C   6                  0.00003     2.98387   
    97. RY*(   7) C   6                  0.00001     2.22756   
    98. RY*(   8) C   6                  0.00001     1.36612   
    99. RY*(   9) C   6                  0.00001     2.29218   
   100. RY*(  10) C   6                  0.00001     1.65027   
   101. RY*(  11) C   6                  0.00000     2.69738   
   102. RY*(  12) C   6                  0.00000    18.99104   
   103. RY*(  13) C   6                  0.00001     4.84297   
   104. RY*(   1) C   7                  0.00291     1.27916   
   105. RY*(   2) C   7                  0.00113     1.37419   
   106. RY*(   3) C   7                  0.00036     0.66769   
   107. RY*(   4) C   7                  0.00027     1.00169   
   108. RY*(   5) C   7                  0.00008     3.06639   
   109. RY*(   6) C   7                  0.00008     1.56820   
   110. RY*(   7) C   7                  0.00005     2.88920   
   111. RY*(   8) C   7                  0.00003     3.70918   
   112. RY*(   9) C   7                  0.00001     2.14089   
   113. RY*(  10) C   7                  0.00000     2.67743   
   114. RY*(  11) C   7                  0.00000     1.56454   
   115. RY*(  12) C   7                  0.00000    21.62486   
   116. RY*(  13) C   7                  0.00000     2.48916   
   117. RY*(   1) H   8                  0.00071     1.61788   
   118. RY*(   2) H   8                  0.00047     1.51187   
   119. RY*(   3) H   8                  0.00024     0.73647   
   120. RY*(   4) H   8                  0.00016     1.98197   
   121. RY*(   5) H   8                  0.00001     2.59704   
   122. RY*(   1) H   9                  0.00056     0.63618   
   123. RY*(   2) H   9                  0.00008     2.00012   
   124. RY*(   3) H   9                  0.00003     2.03921   
   125. RY*(   4) H   9                  0.00002     2.48877   
   126. RY*(   5) H   9                  0.00002     1.60964   
   127. RY*(   1) H  10                  0.00034     0.63981   
   128. RY*(   2) H  10                  0.00009     1.99913   
   129. RY*(   3) H  10                  0.00003     1.99812   
   130. RY*(   4) H  10                  0.00001     2.51644   
   131. RY*(   5) H  10                  0.00002     1.61051   
   132. RY*(   1) H  11                  0.00039     0.65884   
   133. RY*(   2) H  11                  0.00009     2.02185   
   134. RY*(   3) H  11                  0.00003     1.99132   
   135. RY*(   4) H  11                  0.00001     2.47400   
   136. RY*(   5) H  11                  0.00000     1.60845   
   137. RY*(   1) H  12                  0.00034     0.62831   
   138. RY*(   2) H  12                  0.00009     2.00151   
   139. RY*(   3) H  12                  0.00003     2.00426   
   140. RY*(   4) H  12                  0.00001     2.51836   
   141. RY*(   5) H  12                  0.00002     1.61269   
   142. RY*(   1) H  13                  0.00055     0.57284   
   143. RY*(   2) H  13                  0.00008     2.06604   
   144. RY*(   3) H  13                  0.00004     1.99710   
   145. RY*(   4) H  13                  0.00002     2.53994   
   146. RY*(   5) H  13                  0.00002     1.61336   
   147. BD*(   1) O   1 - C   2          0.01249     0.35453   
   148. BD*(   2) O   1 - C   2          0.07339    -0.04446   
   149. BD*(   1) O   1 - H   8          0.00290     0.44498   
   150. BD*(   1) C   2 - C   3          0.01326     0.56220   
   151. BD*(   1) C   2 - C   7          0.01229     0.56243   
   152. BD*(   1) C   3 - C   4          0.00735     0.57660   
   153. BD*(   2) C   3 - C   4          0.01642     0.03392   
   154. BD*(   1) C   3 - H   9          0.00606     0.47336   
   155. BD*(   1) C   4 - C   5          0.00730     0.59019   
   156. BD*(   1) C   4 - H  10          0.00643     0.49063   
   157. BD*(   1) C   5 - C   6          0.00745     0.58670   
   158. BD*(   1) C   5 - H  11          0.00630     0.49685   
   159. BD*(   1) C   6 - C   7          0.00674     0.58352   
   160. BD*(   2) C   6 - C   7          0.01569     0.03709   
   161. BD*(   1) C   6 - H  12          0.00649     0.49156   
   162. BD*(   1) C   7 - H  13          0.00576     0.48221   
       -------------------------------
              Total Lewis   23.56556  ( 98.1898%)
        Valence non-Lewis    0.39953  (  1.6647%)
        Rydberg non-Lewis    0.03491  (  0.1455%)
       -------------------------------
            Total unit  1   24.00000  (100.0000%)
           Charge unit  1    1.00000

 Test job not archived.
 1\1\GINC-LEGACY-N2\SP\UM062X\6-311G(d,p)\C6H6O1(1+,2)\TWS35\14-Aug-202
 0\0\\#m062x/6-311g(d,p) charge pop = nbo nosymm scf=(maxcycle=999) gfi
 nput iop(6/7=3) scrf=(cpcm,solvent=water)\\Oc1ccccc1\\1,2\O,0,1.063008
 ,0.032112,0.147809\C,0,2.418329,0.110307,0.055526\C,0,3.099219,1.32624
 1,0.026994\C,0,4.487454,1.335604,-0.067123\C,0,5.201612,0.143775,-0.13
 2811\C,0,4.511633,-1.066409,-0.104275\C,0,3.12623,-1.089545,-0.010458\
 H,0,0.689062,0.918604,0.183229\H,0,2.543845,2.257258,0.077353\H,0,5.01
 0249,2.284922,-0.089008\H,0,6.281904,0.156668,-0.206001\H,0,5.055326,-
 2.002869,-0.155491\H,0,2.575888,-2.022598,0.012537\\Version=EM64L-G09R
 evD.01\HF=-307.1815307\S2=0.770695\S2-1=0.\S2A=0.750192\RMSD=6.882e-09
 \Dipole=0.1648654,0.7320378,-0.0035653\Quadrupole=34.7310566,-11.58310
 07,-23.1479559,2.4509928,-1.2272298,0.4028383\PG=C01 [X(C6H6O1)]\\@


 NATURE REVEALS EVERY SECRET ONCE.
                    - RALPH WALDO EMERSON
 Job cpu time:       0 days  0 hours  2 minutes 10.7 seconds.
 File lengths (MBytes):  RWF=     30 Int=      0 D2E=      0 Chk=      3 Scr=      1
 Normal termination of Gaussian 09 at Fri Aug 14 19:10:29 2020.
