 Entering Gaussian System, Link 0=g09
 Initial command:
 /ihome/crc/build/g09/g09-D.01/TAR/g09/l1.exe "/scratch/slurm-4550281/Gau-8703.inp" -scrdir="/scratch/slurm-4550281/"
 Entering Link 1 = /ihome/crc/build/g09/g09-D.01/TAR/g09/l1.exe PID=      8704.
  
 Copyright (c) 1988,1990,1992,1993,1995,1998,2003,2009,2013,
            Gaussian, Inc.  All Rights Reserved.
  
 This is part of the Gaussian(R) 09 program.  It is based on
 the Gaussian(R) 03 system (copyright 2003, Gaussian, Inc.),
 the Gaussian(R) 98 system (copyright 1998, Gaussian, Inc.),
 the Gaussian(R) 94 system (copyright 1995, Gaussian, Inc.),
 the Gaussian 92(TM) system (copyright 1992, Gaussian, Inc.),
 the Gaussian 90(TM) system (copyright 1990, Gaussian, Inc.),
 the Gaussian 88(TM) system (copyright 1988, Gaussian, Inc.),
 the Gaussian 86(TM) system (copyright 1986, Carnegie Mellon
 University), and the Gaussian 82(TM) system (copyright 1983,
 Carnegie Mellon University). Gaussian is a federally registered
 trademark of Gaussian, Inc.
  
 This software contains proprietary and confidential information,
 including trade secrets, belonging to Gaussian, Inc.
  
 This software is provided under written license and may be
 used, copied, transmitted, or stored only in accord with that
 written license.
  
 The following legend is applicable only to US Government
 contracts under FAR:
  
                    RESTRICTED RIGHTS LEGEND
  
 Use, reproduction and disclosure by the US Government is
 subject to restrictions as set forth in subparagraphs (a)
 and (c) of the Commercial Computer Software - Restricted
 Rights clause in FAR 52.227-19.
  
 Gaussian, Inc.
 340 Quinnipiac St., Bldg. 40, Wallingford CT 06492
  
  
 ---------------------------------------------------------------
 Warning -- This program may not be used in any manner that
 competes with the business of Gaussian, Inc. or will provide
 assistance to any competitor of Gaussian, Inc.  The licensee
 of this program is prohibited from giving any competitor of
 Gaussian, Inc. access to this program.  By using this program,
 the user acknowledges that Gaussian, Inc. is engaged in the
 business of creating and licensing software in the field of
 computational chemistry and represents and warrants to the
 licensee that it is not a competitor of Gaussian, Inc. and that
 it will not use this program in any manner prohibited above.
 ---------------------------------------------------------------
  

 Cite this work as:
 Gaussian 09, Revision D.01,
 M. J. Frisch, G. W. Trucks, H. B. Schlegel, G. E. Scuseria, 
 M. A. Robb, J. R. Cheeseman, G. Scalmani, V. Barone, B. Mennucci, 
 G. A. Petersson, H. Nakatsuji, M. Caricato, X. Li, H. P. Hratchian, 
 A. F. Izmaylov, J. Bloino, G. Zheng, J. L. Sonnenberg, M. Hada, 
 M. Ehara, K. Toyota, R. Fukuda, J. Hasegawa, M. Ishida, T. Nakajima, 
 Y. Honda, O. Kitao, H. Nakai, T. Vreven, J. A. Montgomery, Jr., 
 J. E. Peralta, F. Ogliaro, M. Bearpark, J. J. Heyd, E. Brothers, 
 K. N. Kudin, V. N. Staroverov, T. Keith, R. Kobayashi, J. Normand, 
 K. Raghavachari, A. Rendell, J. C. Burant, S. S. Iyengar, J. Tomasi, 
 M. Cossi, N. Rega, J. M. Millam, M. Klene, J. E. Knox, J. B. Cross, 
 V. Bakken, C. Adamo, J. Jaramillo, R. Gomperts, R. E. Stratmann, 
 O. Yazyev, A. J. Austin, R. Cammi, C. Pomelli, J. W. Ochterski, 
 R. L. Martin, K. Morokuma, V. G. Zakrzewski, G. A. Voth, 
 P. Salvador, J. J. Dannenberg, S. Dapprich, A. D. Daniels, 
 O. Farkas, J. B. Foresman, J. V. Ortiz, J. Cioslowski, 
 and D. J. Fox, Gaussian, Inc., Wallingford CT, 2013.
 
 ******************************************
 Gaussian 09:  EM64L-G09RevD.01 24-Apr-2013
                14-Aug-2020 
 ******************************************
 %Nproc=4
 Will use up to    4 processors via shared memory.
 %mem=10GB
 ----------------------------------------------------------------------
 #m062x/6-311g(d,p) charge pop = nbo opt=maxcycle=640 freq nosymm scf=(
 maxcycle=999) gfinput iop(6/7=3)
 ----------------------------------------------------------------------
 1/6=640,10=7,14=-1,18=10,26=3,28=-2,38=1,125=101/1,3;
 2/12=2,15=1,17=6,18=5,29=2,40=1/2;
 3/5=4,6=6,7=101,11=2,16=1,24=10,25=1,30=1,71=1,74=-55/1,2,3;
 4//1;
 5/5=2,7=999,38=5/2;
 6/7=3,8=2,9=2,10=2,28=1,40=1/1,7;
 7/7=1,16=-2,29=1,30=1/1,2,3,16;
 1/6=640,10=7,14=-1,18=10,26=3,28=-2/3(2);
 2/15=1,29=1/2;
 99/12=1/99;
 2/15=1,29=1/2;
 3/5=4,6=6,7=101,11=2,16=1,25=1,30=1,71=1,74=-55/1,2,3;
 4/5=5,16=3,69=1/1;
 5/5=2,7=999,38=5/2;
 7/7=1,16=-2,30=1/1,2,3,16;
 1/6=640,14=-1,18=10,26=3,28=-2/3(-5);
 2/15=1,29=1/2;
 6/7=3,8=2,9=2,10=2,19=2,28=1,40=1/1,7;
 99/9=1,12=1/99;
 ---------
 Oc1ccccc1
 ---------
 Symbolic Z-matrix:
 Charge =  0 Multiplicity = 1
 O                     1.06301   0.03211   0.14781 
 C                     2.41833   0.11031   0.05553 
 C                     3.09922   1.32624   0.02699 
 C                     4.48745   1.3356   -0.06712 
 C                     5.20161   0.14378  -0.13281 
 C                     4.51163  -1.06641  -0.10428 
 C                     3.12623  -1.08954  -0.01046 
 H                     0.68906   0.9186    0.18323 
 H                     2.54385   2.25726   0.07735 
 H                     5.01025   2.28492  -0.08901 
 H                     6.2819    0.15667  -0.206 
 H                     5.05533  -2.00287  -0.15549 
 H                     2.57589  -2.0226    0.01254 
 
 Background charge distribution read from input stream:

 GradGradGradGradGradGradGradGradGradGradGradGradGradGradGradGradGradGrad
 Berny optimization.
 Initialization pass.
 No Z-matrix variables, so optimization will use Cartesian coordinates.
 Trust Radius=3.00D-01 FncErr=1.00D-07 GrdErr=1.00D-06
 Number of steps in this run=    100 maximum allowed number of steps=    100.
 GradGradGradGradGradGradGradGradGradGradGradGradGradGradGradGradGradGrad

 ---------------------------------------------------------------------------------------------------
                            Z-MATRIX (ANGSTROMS AND DEGREES)
   CD    Cent   Atom    N1       Length/X        N2       Alpha/Y        N3        Beta/Z          J
 ---------------------------------------------------------------------------------------------------
      1      1  O        0   1.063008          0.032112          0.147809
      2      2  C        0   2.418329          0.110307          0.055526
      3      3  C        0   3.099219          1.326241          0.026994
      4      4  C        0   4.487454          1.335604         -0.067123
      5      5  C        0   5.201612          0.143775         -0.132811
      6      6  C        0   4.511633         -1.066409         -0.104275
      7      7  C        0   3.126230         -1.089545         -0.010458
      8      8  H        0   0.689062          0.918604          0.183229
      9      9  H        0   2.543845          2.257258          0.077353
     10     10  H        0   5.010249          2.284922         -0.089008
     11     11  H        0   6.281904          0.156668         -0.206001
     12     12  H        0   5.055326         -2.002869         -0.155491
     13     13  H        0   2.575888         -2.022598          0.012537
 ---------------------------------------------------------------------------------------------------
                         Z-Matrix orientation:                         
 ---------------------------------------------------------------------
 Center     Atomic      Atomic             Coordinates (Angstroms)
 Number     Number       Type             X           Y           Z
 ---------------------------------------------------------------------
      1          8           0        1.063008    0.032112    0.147809
      2          6           0        2.418329    0.110307    0.055526
      3          6           0        3.099219    1.326241    0.026994
      4          6           0        4.487454    1.335604   -0.067123
      5          6           0        5.201612    0.143775   -0.132811
      6          6           0        4.511633   -1.066409   -0.104275
      7          6           0        3.126230   -1.089545   -0.010458
      8          1           0        0.689062    0.918604    0.183229
      9          1           0        2.543845    2.257258    0.077353
     10          1           0        5.010249    2.284922   -0.089008
     11          1           0        6.281904    0.156668   -0.206001
     12          1           0        5.055326   -2.002869   -0.155491
     13          1           0        2.575888   -2.022598    0.012537
 ---------------------------------------------------------------------
                    Distance matrix (angstroms):
                    1          2          3          4          5
     1  O    0.000000
     2  C    1.360708   0.000000
     3  C    2.415682   1.393887   0.000000
     4  C    3.670438   2.407836   1.391453   0.000000
     5  C    4.149610   2.789849   2.417399   1.390968   0.000000
     6  C    3.628127   2.406682   2.781532   2.402422   1.393352
     7  C    2.353731   1.394676   2.416227   2.781634   2.417283
     8  H    0.962787   1.913117   2.449374   3.829406   4.589482
     9  H    2.673783   2.150728   1.085251   2.155907   3.402162
    10  H    4.551038   3.386427   2.141159   1.083973   2.150128
    11  H    5.232358   3.872694   3.398775   2.151564   1.082845
    12  H    4.491296   3.385823   3.865570   3.387579   2.151742
    13  H    2.555179   2.139149   3.389514   3.864965   3.407158
                    6          7          8          9         10
     6  C    0.000000
     7  C    1.388769   0.000000
     8  H    4.316826   3.163853   0.000000
     9  H    3.866774   3.398231   2.289852   0.000000
    10  H    3.388255   3.865582   4.540220   2.472163   0.000000
    11  H    2.154095   3.398465   5.657908   4.297191   2.481987
    12  H    1.084058   2.139301   5.264409   4.950801   4.288543
    13  H    2.162187   1.083510   3.498559   4.280467   4.948854
                   11         12         13
    11  H    0.000000
    12  H    2.484078   0.000000
    13  H    4.304824   2.485203   0.000000
 Symmetry turned off by external request.
 Stoichiometry    C6H6O
 Framework group  C1[X(C6H6O)]
 Deg. of freedom    33
 Full point group                 C1      NOp   1
 Rotational constants (GHZ):      5.6839729      2.6331053      1.7994904
 Standard basis: 6-311G(d,p) (5D, 7F)
 AO basis set in the form of general basis input (Overlap normalization):
      1 0
 S   6 1.00       0.000000000000
      0.8588500000D+04  0.1895150083D-02
      0.1297230000D+04  0.1438590063D-01
      0.2992960000D+03  0.7073200310D-01
      0.8737710000D+02  0.2400010105D+00
      0.2567890000D+02  0.5947970261D+00
      0.3740040000D+01  0.2808020123D+00
 SP   3 1.00       0.000000000000
      0.4211750000D+02  0.1138890124D+00  0.3651139738D-01
      0.9628370000D+01  0.9208111006D+00  0.2371529830D+00
      0.2853320000D+01 -0.3274470358D-02  0.8197019412D+00
 SP   1 1.00       0.000000000000
      0.9056610000D+00  0.1000000000D+01  0.1000000000D+01
 SP   1 1.00       0.000000000000
      0.2556110000D+00  0.1000000000D+01  0.1000000000D+01
 D   1 1.00       0.000000000000
      0.1292000000D+01  0.1000000000D+01
 ****
      2 0
 S   6 1.00       0.000000000000
      0.4563240000D+04  0.1966650249D-02
      0.6820240000D+03  0.1523060193D-01
      0.1549730000D+03  0.7612690966D-01
      0.4445530000D+02  0.2608010331D+00
      0.1302900000D+02  0.6164620782D+00
      0.1827730000D+01  0.2210060280D+00
 SP   3 1.00       0.000000000000
      0.2096420000D+02  0.1146600807D+00  0.4024869267D-01
      0.4803310000D+01  0.9199996477D+00  0.2375939567D+00
      0.1459330000D+01 -0.3030682134D-02  0.8158538515D+00
 SP   1 1.00       0.000000000000
      0.4834560000D+00  0.1000000000D+01  0.1000000000D+01
 SP   1 1.00       0.000000000000
      0.1455850000D+00  0.1000000000D+01  0.1000000000D+01
 D   1 1.00       0.000000000000
      0.6260000000D+00  0.1000000000D+01
 ****
      3 0
 S   6 1.00       0.000000000000
      0.4563240000D+04  0.1966650249D-02
      0.6820240000D+03  0.1523060193D-01
      0.1549730000D+03  0.7612690966D-01
      0.4445530000D+02  0.2608010331D+00
      0.1302900000D+02  0.6164620782D+00
      0.1827730000D+01  0.2210060280D+00
 SP   3 1.00       0.000000000000
      0.2096420000D+02  0.1146600807D+00  0.4024869267D-01
      0.4803310000D+01  0.9199996477D+00  0.2375939567D+00
      0.1459330000D+01 -0.3030682134D-02  0.8158538515D+00
 SP   1 1.00       0.000000000000
      0.4834560000D+00  0.1000000000D+01  0.1000000000D+01
 SP   1 1.00       0.000000000000
      0.1455850000D+00  0.1000000000D+01  0.1000000000D+01
 D   1 1.00       0.000000000000
      0.6260000000D+00  0.1000000000D+01
 ****
      4 0
 S   6 1.00       0.000000000000
      0.4563240000D+04  0.1966650249D-02
      0.6820240000D+03  0.1523060193D-01
      0.1549730000D+03  0.7612690966D-01
      0.4445530000D+02  0.2608010331D+00
      0.1302900000D+02  0.6164620782D+00
      0.1827730000D+01  0.2210060280D+00
 SP   3 1.00       0.000000000000
      0.2096420000D+02  0.1146600807D+00  0.4024869267D-01
      0.4803310000D+01  0.9199996477D+00  0.2375939567D+00
      0.1459330000D+01 -0.3030682134D-02  0.8158538515D+00
 SP   1 1.00       0.000000000000
      0.4834560000D+00  0.1000000000D+01  0.1000000000D+01
 SP   1 1.00       0.000000000000
      0.1455850000D+00  0.1000000000D+01  0.1000000000D+01
 D   1 1.00       0.000000000000
      0.6260000000D+00  0.1000000000D+01
 ****
      5 0
 S   6 1.00       0.000000000000
      0.4563240000D+04  0.1966650249D-02
      0.6820240000D+03  0.1523060193D-01
      0.1549730000D+03  0.7612690966D-01
      0.4445530000D+02  0.2608010331D+00
      0.1302900000D+02  0.6164620782D+00
      0.1827730000D+01  0.2210060280D+00
 SP   3 1.00       0.000000000000
      0.2096420000D+02  0.1146600807D+00  0.4024869267D-01
      0.4803310000D+01  0.9199996477D+00  0.2375939567D+00
      0.1459330000D+01 -0.3030682134D-02  0.8158538515D+00
 SP   1 1.00       0.000000000000
      0.4834560000D+00  0.1000000000D+01  0.1000000000D+01
 SP   1 1.00       0.000000000000
      0.1455850000D+00  0.1000000000D+01  0.1000000000D+01
 D   1 1.00       0.000000000000
      0.6260000000D+00  0.1000000000D+01
 ****
      6 0
 S   6 1.00       0.000000000000
      0.4563240000D+04  0.1966650249D-02
      0.6820240000D+03  0.1523060193D-01
      0.1549730000D+03  0.7612690966D-01
      0.4445530000D+02  0.2608010331D+00
      0.1302900000D+02  0.6164620782D+00
      0.1827730000D+01  0.2210060280D+00
 SP   3 1.00       0.000000000000
      0.2096420000D+02  0.1146600807D+00  0.4024869267D-01
      0.4803310000D+01  0.9199996477D+00  0.2375939567D+00
      0.1459330000D+01 -0.3030682134D-02  0.8158538515D+00
 SP   1 1.00       0.000000000000
      0.4834560000D+00  0.1000000000D+01  0.1000000000D+01
 SP   1 1.00       0.000000000000
      0.1455850000D+00  0.1000000000D+01  0.1000000000D+01
 D   1 1.00       0.000000000000
      0.6260000000D+00  0.1000000000D+01
 ****
      7 0
 S   6 1.00       0.000000000000
      0.4563240000D+04  0.1966650249D-02
      0.6820240000D+03  0.1523060193D-01
      0.1549730000D+03  0.7612690966D-01
      0.4445530000D+02  0.2608010331D+00
      0.1302900000D+02  0.6164620782D+00
      0.1827730000D+01  0.2210060280D+00
 SP   3 1.00       0.000000000000
      0.2096420000D+02  0.1146600807D+00  0.4024869267D-01
      0.4803310000D+01  0.9199996477D+00  0.2375939567D+00
      0.1459330000D+01 -0.3030682134D-02  0.8158538515D+00
 SP   1 1.00       0.000000000000
      0.4834560000D+00  0.1000000000D+01  0.1000000000D+01
 SP   1 1.00       0.000000000000
      0.1455850000D+00  0.1000000000D+01  0.1000000000D+01
 D   1 1.00       0.000000000000
      0.6260000000D+00  0.1000000000D+01
 ****
      8 0
 S   3 1.00       0.000000000000
      0.3386500000D+02  0.2549381454D-01
      0.5094790000D+01  0.1903731086D+00
      0.1158790000D+01  0.8521614860D+00
 S   1 1.00       0.000000000000
      0.3258400000D+00  0.1000000000D+01
 S   1 1.00       0.000000000000
      0.1027410000D+00  0.1000000000D+01
 P   1 1.00       0.000000000000
      0.7500000000D+00  0.1000000000D+01
 ****
      9 0
 S   3 1.00       0.000000000000
      0.3386500000D+02  0.2549381454D-01
      0.5094790000D+01  0.1903731086D+00
      0.1158790000D+01  0.8521614860D+00
 S   1 1.00       0.000000000000
      0.3258400000D+00  0.1000000000D+01
 S   1 1.00       0.000000000000
      0.1027410000D+00  0.1000000000D+01
 P   1 1.00       0.000000000000
      0.7500000000D+00  0.1000000000D+01
 ****
     10 0
 S   3 1.00       0.000000000000
      0.3386500000D+02  0.2549381454D-01
      0.5094790000D+01  0.1903731086D+00
      0.1158790000D+01  0.8521614860D+00
 S   1 1.00       0.000000000000
      0.3258400000D+00  0.1000000000D+01
 S   1 1.00       0.000000000000
      0.1027410000D+00  0.1000000000D+01
 P   1 1.00       0.000000000000
      0.7500000000D+00  0.1000000000D+01
 ****
     11 0
 S   3 1.00       0.000000000000
      0.3386500000D+02  0.2549381454D-01
      0.5094790000D+01  0.1903731086D+00
      0.1158790000D+01  0.8521614860D+00
 S   1 1.00       0.000000000000
      0.3258400000D+00  0.1000000000D+01
 S   1 1.00       0.000000000000
      0.1027410000D+00  0.1000000000D+01
 P   1 1.00       0.000000000000
      0.7500000000D+00  0.1000000000D+01
 ****
     12 0
 S   3 1.00       0.000000000000
      0.3386500000D+02  0.2549381454D-01
      0.5094790000D+01  0.1903731086D+00
      0.1158790000D+01  0.8521614860D+00
 S   1 1.00       0.000000000000
      0.3258400000D+00  0.1000000000D+01
 S   1 1.00       0.000000000000
      0.1027410000D+00  0.1000000000D+01
 P   1 1.00       0.000000000000
      0.7500000000D+00  0.1000000000D+01
 ****
     13 0
 S   3 1.00       0.000000000000
      0.3386500000D+02  0.2549381454D-01
      0.5094790000D+01  0.1903731086D+00
      0.1158790000D+01  0.8521614860D+00
 S   1 1.00       0.000000000000
      0.3258400000D+00  0.1000000000D+01
 S   1 1.00       0.000000000000
      0.1027410000D+00  0.1000000000D+01
 P   1 1.00       0.000000000000
      0.7500000000D+00  0.1000000000D+01
 ****

   162 basis functions,   272 primitive gaussians,   169 cartesian basis functions
    25 alpha electrons       25 beta electrons
       nuclear repulsion energy       271.7122047021 Hartrees.
 NAtoms=   13 NActive=   13 NUniq=   13 SFac= 1.00D+00 NAtFMM=   60 NAOKFM=F Big=F
 Integral buffers will be    131072 words long.
 Raffenetti 2 integral format.
 Two-electron integral symmetry is turned off.
 One-electron integrals computed using PRISM.
 NBasis=   162 RedAO= T EigKep=  2.17D-04  NBF=   162
 NBsUse=   162 1.00D-06 EigRej= -1.00D+00 NBFU=   162
 ExpMin= 1.03D-01 ExpMax= 8.59D+03 ExpMxC= 1.30D+03 IAcc=1 IRadAn=         1 AccDes= 0.00D+00
 Harris functional with IExCor= 1009 and IRadAn=       1 diagonalized for initial guess.
 HarFok:  IExCor= 1009 AccDes= 0.00D+00 IRadAn=         1 IDoV= 1 UseB2=F ITyADJ=14
 ICtDFT=  3500011 ScaDFX=  1.000000  1.000000  1.000000  1.000000
 FoFCou: FMM=F IPFlag=           0 FMFlag=      100000 FMFlg1=           0
         NFxFlg=           0 DoJE=T BraDBF=F KetDBF=T FulRan=T
         wScrn=  0.000000 ICntrl=     500 IOpCl=  0 I1Cent=   200000004 NGrid=           0
         NMat0=    1 NMatS0=      1 NMatT0=    0 NMatD0=    1 NMtDS0=    0 NMtDT0=    0
 Symmetry not used in FoFCou.
 Keep R1 ints in memory in canonical form, NReq=90714880.
 Requested convergence on RMS density matrix=1.00D-08 within 999 cycles.
 Requested convergence on MAX density matrix=1.00D-06.
 Requested convergence on             energy=1.00D-06.
 No special actions if energy rises.
 Integral accuracy reduced to 1.0D-05 until final iterations.
 Initial convergence to 1.0D-05 achieved.  Increase integral accuracy.
 SCF Done:  E(RM062X) =  -307.417318988     A.U. after   15 cycles
            NFock= 15  Conv=0.27D-08     -V/T= 2.0036

 **********************************************************************

            Population analysis using the SCF density.

 **********************************************************************

 Alpha  occ. eigenvalues --  -19.64743 -10.60579 -10.54621 -10.54416 -10.54298
 Alpha  occ. eigenvalues --  -10.53697 -10.53541  -1.18688  -0.95753  -0.84767
 Alpha  occ. eigenvalues --   -0.83572  -0.71129  -0.68757  -0.62414  -0.57525
 Alpha  occ. eigenvalues --   -0.54188  -0.50804  -0.49332  -0.49207  -0.46334
 Alpha  occ. eigenvalues --   -0.42364  -0.41117  -0.40096  -0.31051  -0.27946
 Alpha virt. eigenvalues --    0.02469   0.04245   0.06558   0.08472   0.11353
 Alpha virt. eigenvalues --    0.12954   0.15462   0.16652   0.20948   0.26154
 Alpha virt. eigenvalues --    0.28818   0.31234   0.32916   0.34568   0.39117
 Alpha virt. eigenvalues --    0.41389   0.42670   0.43633   0.45151   0.47586
 Alpha virt. eigenvalues --    0.48012   0.48578   0.48891   0.49373   0.49841
 Alpha virt. eigenvalues --    0.55683   0.56780   0.57679   0.60954   0.64883
 Alpha virt. eigenvalues --    0.65358   0.65759   0.66446   0.67685   0.71595
 Alpha virt. eigenvalues --    0.73661   0.76927   0.78062   0.81875   0.84500
 Alpha virt. eigenvalues --    0.87221   0.88570   0.89049   0.92065   0.93715
 Alpha virt. eigenvalues --    1.02828   1.03158   1.04145   1.05916   1.09670
 Alpha virt. eigenvalues --    1.13439   1.15999   1.19143   1.25119   1.25727
 Alpha virt. eigenvalues --    1.32500   1.44360   1.45605   1.48652   1.51050
 Alpha virt. eigenvalues --    1.53537   1.58321   1.59477   1.60121   1.63294
 Alpha virt. eigenvalues --    1.64061   1.64190   1.67064   1.72190   1.77013
 Alpha virt. eigenvalues --    1.79253   1.80795   1.81118   1.85941   1.93487
 Alpha virt. eigenvalues --    1.93837   1.94784   1.95103   1.95772   1.97314
 Alpha virt. eigenvalues --    2.00415   2.00497   2.04261   2.06384   2.10778
 Alpha virt. eigenvalues --    2.29295   2.29676   2.32975   2.35670   2.36285
 Alpha virt. eigenvalues --    2.40614   2.48327   2.50611   2.60646   2.61319
 Alpha virt. eigenvalues --    2.62662   2.63493   2.64210   2.66420   2.66866
 Alpha virt. eigenvalues --    2.70060   2.74723   2.77312   2.83467   2.85054
 Alpha virt. eigenvalues --    2.89083   2.90522   2.94884   3.09447   3.10907
 Alpha virt. eigenvalues --    3.15938   3.16754   3.24574   3.37383   3.41020
 Alpha virt. eigenvalues --    3.46351   3.52386   3.53720   3.60354   3.69503
 Alpha virt. eigenvalues --    3.90619   4.00077   4.03899   4.11720   4.13996
 Alpha virt. eigenvalues --    4.14575   4.85558   4.93548   5.43718   5.79718
 Alpha virt. eigenvalues --   23.56483  23.99319  24.02524  24.15074  24.18235
 Alpha virt. eigenvalues --   24.26915  50.02034
     Molecular Orbital Coefficients:
                           1         2         3         4         5
                           O         O         O         O         O
     Eigenvalues --   -19.64743 -10.60579 -10.54621 -10.54416 -10.54298
   1 1   O  1S          0.55288  -0.00006   0.00000   0.00000   0.00000
   2        2S          0.46948  -0.00015   0.00001   0.00001   0.00002
   3        2PX         0.00079   0.00024   0.00003   0.00003   0.00002
   4        2PY         0.00128   0.00005   0.00001  -0.00001   0.00000
   5        2PZ        -0.00004  -0.00002   0.00000   0.00000   0.00000
   6        3S          0.00897   0.00104  -0.00008  -0.00009  -0.00005
   7        3PX         0.00001   0.00010  -0.00013  -0.00013  -0.00010
   8        3PY        -0.00019  -0.00015  -0.00005   0.00005  -0.00003
   9        3PZ         0.00000  -0.00001   0.00001   0.00001   0.00001
  10        4S         -0.00634  -0.00370  -0.00010  -0.00005   0.00002
  11        4PX        -0.00163  -0.00143   0.00011   0.00022  -0.00026
  12        4PY        -0.00005  -0.00007   0.00001  -0.00029  -0.00035
  13        4PZ         0.00011   0.00010  -0.00001  -0.00002   0.00001
  14        5D 0       -0.00006   0.00024   0.00002   0.00002   0.00006
  15        5D+1       -0.00001   0.00004   0.00000   0.00001   0.00001
  16        5D-1        0.00001   0.00000   0.00000   0.00000   0.00000
  17        5D+2       -0.00005  -0.00018  -0.00003  -0.00003  -0.00007
  18        5D-2       -0.00010   0.00002  -0.00002   0.00001  -0.00005
  19 2   C  1S          0.00001   0.56411  -0.00040  -0.00012  -0.00351
  20        2S         -0.00007   0.46380  -0.00024  -0.00002  -0.00277
  21        2PX        -0.00017  -0.00131   0.00009   0.00007   0.00028
  22        2PY        -0.00002   0.00001   0.00018  -0.00015   0.00063
  23        2PZ         0.00001   0.00009   0.00000  -0.00001  -0.00001
  24        3S          0.00063   0.01225  -0.00031  -0.00030  -0.00038
  25        3PX         0.00008   0.00211  -0.00054  -0.00049  -0.00072
  26        3PY         0.00000   0.00003  -0.00094   0.00084  -0.00203
  27        3PZ        -0.00001  -0.00014   0.00002   0.00005   0.00002
  28        4S         -0.00093  -0.00835  -0.00385  -0.00416   0.00640
  29        4PX        -0.00592  -0.00671  -0.00130  -0.00142   0.00305
  30        4PY        -0.00057  -0.00097  -0.00062   0.00094   0.00128
  31        4PZ         0.00040   0.00044   0.00008   0.00011  -0.00019
  32        5D 0       -0.00003  -0.00114   0.00011   0.00007   0.00044
  33        5D+1        0.00000  -0.00010  -0.00001   0.00000   0.00000
  34        5D-1        0.00001   0.00003   0.00003  -0.00003   0.00005
  35        5D+2       -0.00013  -0.00056   0.00021   0.00016   0.00049
  36        5D-2       -0.00011   0.00004  -0.00050   0.00045  -0.00103
  37 3   C  1S          0.00000   0.00339   0.06824  -0.00562   0.55990
  38        2S          0.00002   0.00292   0.05622  -0.00455   0.46025
  39        2PX        -0.00002  -0.00038   0.00068   0.00002  -0.00027
  40        2PY         0.00004  -0.00062   0.00006  -0.00004   0.00007
  41        2PZ         0.00000   0.00002  -0.00005   0.00000   0.00002
  42        3S         -0.00019  -0.00026   0.00128  -0.00062   0.01298
  43        3PX         0.00012   0.00141  -0.00231  -0.00017   0.00056
  44        3PY        -0.00016   0.00227  -0.00021   0.00035  -0.00020
  45        3PZ        -0.00001  -0.00006   0.00015   0.00002  -0.00004
  46        4S          0.00387   0.00583   0.00511   0.00275  -0.00995
  47        4PX         0.00218   0.00117   0.00162   0.00153  -0.00273
  48        4PY        -0.00204  -0.00373  -0.00282  -0.00160   0.00547
  49        4PZ        -0.00018  -0.00013  -0.00015  -0.00013   0.00026
  50        5D 0       -0.00004   0.00040   0.00022  -0.00001  -0.00141
  51        5D+1        0.00000  -0.00003   0.00011   0.00000  -0.00018
  52        5D-1        0.00001   0.00006   0.00001   0.00001   0.00004
  53        5D+2       -0.00004   0.00082  -0.00124  -0.00004   0.00017
  54        5D-2       -0.00009  -0.00115   0.00002  -0.00011  -0.00006
  55 4   C  1S          0.00000  -0.00004   0.55955  -0.00193  -0.06831
  56        2S          0.00001   0.00003   0.46001  -0.00152  -0.05603
  57        2PX        -0.00003  -0.00014  -0.00009   0.00009  -0.00070
  58        2PY        -0.00001   0.00000   0.00014  -0.00014   0.00002
  59        2PZ         0.00000   0.00001   0.00001  -0.00001   0.00005
  60        3S         -0.00005  -0.00029   0.01289  -0.00027  -0.00188
  61        3PX         0.00019   0.00099   0.00016  -0.00044   0.00242
  62        3PY         0.00006   0.00012  -0.00026   0.00098  -0.00013
  63        3PZ        -0.00001  -0.00007  -0.00001   0.00004  -0.00017
  64        4S         -0.00278  -0.00360  -0.00860  -0.00425   0.00674
  65        4PX         0.00083   0.00059   0.00252   0.00097  -0.00223
  66        4PY         0.00045   0.00144   0.00497   0.00141  -0.00405
  67        4PZ        -0.00005  -0.00002  -0.00010  -0.00005   0.00009
  68        5D 0       -0.00001   0.00001  -0.00124   0.00004   0.00057
  69        5D+1        0.00000   0.00003  -0.00014   0.00000   0.00015
  70        5D-1        0.00000   0.00001   0.00003  -0.00003   0.00001
  71        5D+2       -0.00003  -0.00047  -0.00015   0.00024  -0.00128
  72        5D-2       -0.00003  -0.00001  -0.00002   0.00042  -0.00011
  73 5   C  1S          0.00000  -0.00009   0.02029   0.02476  -0.00378
  74        2S          0.00002   0.00000   0.01681   0.02046  -0.00306
  75        2PX        -0.00001  -0.00003  -0.00032  -0.00030  -0.00004
  76        2PY        -0.00001   0.00000   0.00063  -0.00064   0.00003
  77        2PZ         0.00000   0.00000   0.00003   0.00001   0.00000
  78        3S         -0.00014  -0.00050   0.00016   0.00030  -0.00024
  79        3PX         0.00007   0.00036   0.00111   0.00097   0.00050
  80        3PY         0.00004   0.00001  -0.00221   0.00217  -0.00045
  81        3PZ         0.00000  -0.00002  -0.00011  -0.00003  -0.00004
  82        4S          0.00113   0.00282   0.00524   0.00550  -0.00506
  83        4PX        -0.00076  -0.00202  -0.00360  -0.00373   0.00243
  84        4PY        -0.00009   0.00017   0.00035  -0.00046  -0.00026
  85        4PZ         0.00005   0.00014   0.00025   0.00025  -0.00017
  86        5D 0       -0.00002  -0.00003   0.00036   0.00034  -0.00001
  87        5D+1        0.00000  -0.00001   0.00002  -0.00002  -0.00001
  88        5D-1        0.00000   0.00000  -0.00010   0.00006  -0.00002
  89        5D+2        0.00003   0.00010   0.00058   0.00060   0.00013
  90        5D-2       -0.00001   0.00000   0.00120  -0.00114   0.00023
  91 6   C  1S          0.00000  -0.00004   0.00171   0.56264   0.00553
  92        2S          0.00002   0.00004   0.00148   0.46255   0.00461
  93        2PX        -0.00004  -0.00013   0.00007   0.00001  -0.00002
  94        2PY         0.00000   0.00000   0.00014  -0.00011   0.00000
  95        2PZ         0.00000   0.00001   0.00000   0.00000   0.00000
  96        3S         -0.00010  -0.00031  -0.00021   0.01299  -0.00033
  97        3PX         0.00023   0.00097  -0.00038  -0.00011   0.00022
  98        3PY        -0.00003  -0.00011  -0.00098   0.00019  -0.00012
  99        3PZ        -0.00002  -0.00007   0.00001   0.00001  -0.00002
 100        4S         -0.00241  -0.00367  -0.00403  -0.00908   0.00387
 101        4PX         0.00050   0.00091   0.00090   0.00283  -0.00133
 102        4PY        -0.00030  -0.00093  -0.00131  -0.00516   0.00199
 103        4PZ        -0.00004  -0.00008  -0.00008  -0.00027   0.00012
 104        5D 0       -0.00002   0.00001   0.00003  -0.00127  -0.00005
 105        5D+1        0.00000   0.00003  -0.00002  -0.00015   0.00000
 106        5D-1        0.00000   0.00001   0.00002   0.00003   0.00000
 107        5D+2       -0.00006  -0.00045   0.00024  -0.00003  -0.00009
 108        5D-2        0.00003  -0.00001  -0.00041  -0.00001  -0.00003
 109 7   C  1S          0.00000   0.00308  -0.00057   0.03101  -0.00030
 110        2S          0.00002   0.00266  -0.00039   0.02561  -0.00020
 111        2PX        -0.00002  -0.00040   0.00001   0.00071  -0.00005
 112        2PY        -0.00003   0.00060   0.00004  -0.00003   0.00011
 113        2PZ         0.00000   0.00004   0.00000  -0.00005   0.00001
 114        3S         -0.00018  -0.00022  -0.00052   0.00040  -0.00018
 115        3PX         0.00018   0.00145  -0.00015  -0.00243   0.00034
 116        3PY         0.00008  -0.00215  -0.00039   0.00016  -0.00083
 117        3PZ        -0.00001  -0.00013   0.00000   0.00017  -0.00004
 118        4S          0.00275   0.00485   0.00274   0.00592  -0.00363
 119        4PX         0.00198   0.00185   0.00135   0.00173  -0.00120
 120        4PY         0.00169   0.00288   0.00167   0.00322  -0.00134
 121        4PZ        -0.00011  -0.00008  -0.00007  -0.00007   0.00006
 122        5D 0       -0.00003   0.00041  -0.00002   0.00033   0.00002
 123        5D+1        0.00000   0.00002   0.00000   0.00012  -0.00001
 124        5D-1       -0.00001  -0.00010  -0.00001   0.00002  -0.00003
 125        5D+2        0.00003   0.00074  -0.00004  -0.00127   0.00020
 126        5D-2        0.00011   0.00119   0.00012  -0.00008   0.00035
 127 8   H  1S          0.00007   0.00000  -0.00004  -0.00002  -0.00001
 128        2S          0.00014   0.00043   0.00015   0.00019   0.00022
 129        3S         -0.00023  -0.00059  -0.00001   0.00000  -0.00002
 130        4PX        -0.00002   0.00022   0.00006   0.00001   0.00007
 131        4PY         0.00036  -0.00015  -0.00001  -0.00003  -0.00006
 132        4PZ         0.00001  -0.00002   0.00000   0.00000  -0.00001
 133 9   H  1S         -0.00010  -0.00017  -0.00012  -0.00010   0.00049
 134        2S          0.00066  -0.00018  -0.00043   0.00031  -0.00370
 135        3S          0.00046   0.00118   0.00097   0.00048  -0.00002
 136        4PX         0.00000  -0.00013  -0.00034  -0.00005  -0.00086
 137        4PY        -0.00003   0.00040   0.00045   0.00005   0.00145
 138        4PZ         0.00000   0.00001   0.00003   0.00000   0.00008
 139 10  H  1S         -0.00002  -0.00007   0.00046  -0.00007  -0.00023
 140        2S          0.00003  -0.00028  -0.00374  -0.00029   0.00053
 141        3S         -0.00003  -0.00010   0.00002  -0.00009   0.00098
 142        4PX        -0.00001   0.00009   0.00086   0.00005   0.00011
 143        4PY         0.00001   0.00012   0.00153   0.00014   0.00009
 144        4PZ         0.00000   0.00000  -0.00004   0.00000  -0.00001
 145 11  H  1S         -0.00003  -0.00009  -0.00016  -0.00015  -0.00003
 146        2S          0.00009   0.00025  -0.00012  -0.00010  -0.00035
 147        3S          0.00014   0.00047   0.00099   0.00100  -0.00028
 148        4PX         0.00002   0.00008   0.00042   0.00041   0.00009
 149        4PY         0.00000  -0.00001  -0.00007   0.00008   0.00000
 150        4PZ         0.00000  -0.00001  -0.00003  -0.00003  -0.00001
 151 12  H  1S         -0.00002  -0.00008  -0.00007   0.00048  -0.00008
 152        2S          0.00007  -0.00020  -0.00030  -0.00377   0.00028
 153        3S          0.00003   0.00001  -0.00006  -0.00005   0.00049
 154        4PX         0.00001   0.00008   0.00006   0.00088   0.00004
 155        4PY         0.00000  -0.00012  -0.00015  -0.00150  -0.00006
 156        4PZ         0.00000  -0.00001  -0.00001  -0.00008   0.00000
 157 13  H  1S         -0.00009  -0.00018  -0.00010  -0.00015  -0.00005
 158        2S          0.00058  -0.00013   0.00026  -0.00021  -0.00036
 159        3S          0.00037   0.00086   0.00051   0.00099  -0.00006
 160        4PX         0.00004  -0.00015  -0.00006  -0.00029  -0.00006
 161        4PY         0.00001  -0.00039  -0.00007  -0.00035  -0.00012
 162        4PZ         0.00000   0.00000   0.00000   0.00001   0.00000
                           6         7         8         9        10
                           O         O         O         O         O
     Eigenvalues --   -10.53697 -10.53541  -1.18688  -0.95753  -0.84767
   1 1   O  1S          0.00000   0.00000  -0.10865   0.02075   0.00029
   2        2S          0.00002   0.00001  -0.17865   0.03446   0.00047
   3        2PX         0.00003   0.00001   0.03080   0.01541   0.01096
   4        2PY         0.00001  -0.00001   0.03419  -0.01199  -0.01951
   5        2PZ         0.00000   0.00000  -0.00174  -0.00119  -0.00102
   6        3S         -0.00007  -0.00012   0.51012  -0.10190  -0.00115
   7        3PX        -0.00016  -0.00006   0.04906   0.02069   0.01635
   8        3PY        -0.00003   0.00002   0.05634  -0.01855  -0.02948
   9        3PZ         0.00001   0.00000  -0.00275  -0.00162  -0.00152
  10        4S          0.00019   0.00063   0.38987  -0.07720   0.00099
  11        4PX        -0.00019   0.00008   0.03587   0.01357   0.00818
  12        4PY         0.00011  -0.00003   0.01935  -0.00786  -0.01476
  13        4PZ         0.00001  -0.00001  -0.00226  -0.00102  -0.00076
  14        5D 0        0.00005   0.00001  -0.01028   0.00109   0.00037
  15        5D+1        0.00001   0.00000  -0.00143   0.00002  -0.00016
  16        5D-1        0.00000   0.00000   0.00029  -0.00014   0.00010
  17        5D+2       -0.00010  -0.00002   0.00254   0.00188   0.00249
  18        5D-2        0.00000  -0.00001  -0.00183   0.00151  -0.00196
  19 2   C  1S         -0.00323   0.00001  -0.04415  -0.04195  -0.00777
  20        2S         -0.00254   0.00008  -0.07004  -0.06729  -0.01259
  21        2PX         0.00030   0.00001  -0.04909   0.04335   0.00074
  22        2PY        -0.00063  -0.00001  -0.00005   0.00012  -0.06142
  23        2PZ        -0.00003   0.00000   0.00338  -0.00296  -0.00095
  24        3S         -0.00039  -0.00053   0.17589   0.17851   0.03428
  25        3PX        -0.00077  -0.00019  -0.08276   0.05985  -0.00046
  26        3PY         0.00205   0.00002   0.00026  -0.00007  -0.09019
  27        3PZ         0.00008   0.00001   0.00570  -0.00408  -0.00128
  28        4S          0.00637   0.00475   0.06322   0.08138   0.02595
  29        4PX         0.00342   0.00277   0.05851   0.02550   0.00751
  30        4PY        -0.00099   0.00015   0.01653   0.00521  -0.03858
  31        4PZ        -0.00025  -0.00019  -0.00379  -0.00168  -0.00108
  32        5D 0        0.00043  -0.00003  -0.01267  -0.00724  -0.00119
  33        5D+1        0.00003  -0.00001  -0.00287  -0.00060  -0.00028
  34        5D-1       -0.00009   0.00000   0.00007   0.00018   0.00052
  35        5D+2        0.00046   0.00007   0.01961  -0.00351   0.00045
  36        5D-2        0.00104   0.00001  -0.00052   0.00083  -0.00729
  37 3   C  1S          0.00062   0.00154  -0.00932  -0.04968   0.05920
  38        2S          0.00057   0.00132  -0.01488  -0.07937   0.09516
  39        2PX        -0.00005   0.00011  -0.00742   0.01757  -0.02564
  40        2PY        -0.00012  -0.00002  -0.00733  -0.02337  -0.00606
  41        2PZ         0.00000  -0.00001   0.00040  -0.00154   0.00167
  42        3S         -0.00019  -0.00011   0.03966   0.20332  -0.24638
  43        3PX         0.00032  -0.00084  -0.01228   0.02563  -0.03796
  44        3PY         0.00086   0.00018  -0.01271  -0.03388  -0.00795
  45        3PZ        -0.00001   0.00006   0.00065  -0.00224   0.00248
  46        4S         -0.00376  -0.00537  -0.03537   0.08005  -0.12684
  47        4PX        -0.00116  -0.00133  -0.02175   0.00209  -0.01194
  48        4PY         0.00151   0.00224   0.02107   0.00097  -0.00178
  49        4PZ         0.00010   0.00012   0.00180  -0.00013   0.00080
  50        5D 0        0.00001   0.00001  -0.00155  -0.00920   0.00831
  51        5D+1       -0.00002   0.00003  -0.00012  -0.00109   0.00140
  52        5D-1        0.00002   0.00001  -0.00030   0.00029  -0.00007
  53        5D+2        0.00023  -0.00037   0.00011  -0.00015  -0.00626
  54        5D-2       -0.00034  -0.00001   0.00493  -0.00076  -0.00061
  55 4   C  1S          0.00094  -0.02066  -0.00174  -0.05211   0.06108
  56        2S          0.00083  -0.01687  -0.00282  -0.08320   0.09805
  57        2PX        -0.00003   0.00039  -0.00125  -0.01415   0.02462
  58        2PY         0.00000  -0.00058  -0.00072  -0.02471  -0.00286
  59        2PZ         0.00000  -0.00004   0.00007   0.00060  -0.00171
  60        3S         -0.00045  -0.00076   0.00780   0.21360  -0.25464
  61        3PX         0.00020  -0.00135  -0.00460  -0.02106   0.03665
  62        3PY         0.00016   0.00190  -0.00182  -0.03637  -0.00437
  63        3PZ        -0.00001   0.00012   0.00028   0.00090  -0.00255
  64        4S          0.00387   0.00703   0.02982   0.10128  -0.13310
  65        4PX        -0.00120  -0.00193  -0.00721  -0.00657   0.01462
  66        4PY        -0.00212  -0.00418  -0.00191  -0.01179  -0.00054
  67        4PZ         0.00005   0.00007   0.00046   0.00028  -0.00100
  68        5D 0       -0.00004   0.00046  -0.00034  -0.00904   0.00770
  69        5D+1        0.00000   0.00002  -0.00007  -0.00110   0.00135
  70        5D-1        0.00000  -0.00009  -0.00007   0.00026  -0.00017
  71        5D+2       -0.00008   0.00066   0.00062   0.00030  -0.00628
  72        5D-2        0.00004   0.00105   0.00105  -0.00058   0.00102
  73 5   C  1S         -0.01006   0.56308  -0.00096  -0.05092   0.00520
  74        2S         -0.00822   0.46287  -0.00163  -0.08128   0.00833
  75        2PX        -0.00006   0.00012  -0.00086  -0.02878   0.00139
  76        2PY        -0.00008   0.00001   0.00001   0.00013  -0.04671
  77        2PZ         0.00000  -0.00001   0.00006   0.00194  -0.00078
  78        3S         -0.00038   0.01307   0.00527   0.20814  -0.02141
  79        3PX         0.00057  -0.00036  -0.00244  -0.04222   0.00188
  80        3PY         0.00065   0.00003  -0.00008  -0.00004  -0.06915
  81        3PZ        -0.00003   0.00002   0.00016   0.00284  -0.00115
  82        4S         -0.00492  -0.01039  -0.00361   0.08552  -0.01362
  83        4PX         0.00233   0.00673   0.00685  -0.00524   0.00072
  84        4PY         0.00016   0.00004  -0.00174   0.00026  -0.02335
  85        4PZ        -0.00016  -0.00046  -0.00049   0.00035  -0.00039
  86        5D 0        0.00004  -0.00137  -0.00015  -0.00914   0.00069
  87        5D+1       -0.00001  -0.00016   0.00001  -0.00107   0.00023
  88        5D-1        0.00002   0.00004   0.00001   0.00024  -0.00073
  89        5D+2        0.00018   0.00001  -0.00046  -0.00013   0.00008
  90        5D-2       -0.00032  -0.00001  -0.00003  -0.00004   0.01052
  91 6   C  1S         -0.03072  -0.02545  -0.00167  -0.05106  -0.05526
  92        2S         -0.02513  -0.02081  -0.00271  -0.08153  -0.08872
  93        2PX        -0.00072   0.00037  -0.00123  -0.01423  -0.02963
  94        2PY        -0.00006   0.00059   0.00067   0.02439  -0.00655
  95        2PZ         0.00005  -0.00002   0.00009   0.00133   0.00192
  96        3S         -0.00104  -0.00085   0.00772   0.20944   0.23076
  97        3PX         0.00247  -0.00126  -0.00412  -0.02112  -0.04436
  98        3PY         0.00024  -0.00189   0.00186   0.03597  -0.00975
  99        3PZ        -0.00016   0.00006   0.00031   0.00197   0.00287
 100        4S          0.00674   0.00723   0.02866   0.09700   0.11606
 101        4PX        -0.00246  -0.00217  -0.00919  -0.00516  -0.01298
 102        4PY         0.00373   0.00412  -0.00352   0.01074   0.00000
 103        4PZ         0.00022   0.00021   0.00057   0.00051   0.00088
 104        5D 0        0.00047   0.00047  -0.00031  -0.00883  -0.00684
 105        5D+1        0.00015  -0.00001  -0.00009  -0.00105  -0.00131
 106        5D-1        0.00000   0.00005   0.00007   0.00019   0.00006
 107        5D+2       -0.00132   0.00068   0.00050   0.00024   0.00743
 108        5D-2        0.00007  -0.00100  -0.00106   0.00061   0.00010
 109 7   C  1S          0.56315   0.00871  -0.00872  -0.04863  -0.06457
 110        2S          0.46294   0.00721  -0.01388  -0.07769  -0.10376
 111        2PX        -0.00016   0.00010  -0.00691   0.01637   0.01936
 112        2PY         0.00003   0.00002   0.00703   0.02417   0.00202
 113        2PZ         0.00001  -0.00001   0.00058  -0.00076  -0.00129
 114        3S          0.01310   0.00007   0.03679   0.19892   0.26934
 115        3PX         0.00041  -0.00081  -0.01174   0.02353   0.02802
 116        3PY         0.00012  -0.00021   0.01189   0.03564   0.00409
 117        3PZ        -0.00003   0.00005   0.00098  -0.00107  -0.00185
 118        4S         -0.01015  -0.00545  -0.01654   0.08483   0.12957
 119        4PX        -0.00300  -0.00152  -0.02934   0.00220   0.01591
 120        4PY        -0.00544  -0.00222  -0.01092   0.00256  -0.00552
 121        4PZ         0.00012   0.00007   0.00185  -0.00011  -0.00116
 122        5D 0       -0.00137  -0.00001  -0.00140  -0.00898  -0.00868
 123        5D+1       -0.00017   0.00002  -0.00028  -0.00102  -0.00139
 124        5D-1        0.00003   0.00001   0.00037   0.00020   0.00028
 125        5D+2        0.00014  -0.00036   0.00062  -0.00050   0.00493
 126        5D-2        0.00010  -0.00001  -0.00494   0.00061  -0.00177
 127 8   H  1S         -0.00004  -0.00001   0.08564  -0.02667  -0.01537
 128        2S          0.00015   0.00000   0.06674  -0.02542  -0.01708
 129        3S          0.00015   0.00014   0.00481  -0.00107  -0.00160
 130        4PX         0.00010   0.00001   0.01138  -0.00200  -0.00204
 131        4PY         0.00002   0.00003  -0.01854   0.00599   0.00202
 132        4PZ        -0.00001   0.00000  -0.00099   0.00021   0.00016
 133 9   H  1S         -0.00005  -0.00003   0.00524   0.02063  -0.04272
 134        2S         -0.00038  -0.00045   0.00181   0.02180  -0.05174
 135        3S         -0.00014  -0.00028  -0.00649  -0.00570  -0.00156
 136        4PX        -0.00006  -0.00009   0.00037   0.00202  -0.00473
 137        4PY         0.00013   0.00011  -0.00198  -0.00312   0.00671
 138        4PZ         0.00001   0.00001  -0.00005  -0.00018   0.00041
 139 10  H  1S         -0.00009  -0.00019   0.00050   0.02242  -0.04266
 140        2S          0.00030   0.00025  -0.00096   0.02626  -0.05122
 141        3S          0.00050   0.00105  -0.00087  -0.00179  -0.00085
 142        4PX         0.00003   0.00007   0.00001  -0.00223   0.00487
 143        4PY         0.00005   0.00026   0.00003  -0.00403   0.00690
 144        4PZ         0.00000   0.00000   0.00000   0.00009  -0.00023
 145 11  H  1S         -0.00005   0.00049   0.00043   0.02143  -0.00359
 146        2S         -0.00034  -0.00387  -0.00091   0.02363  -0.00392
 147        3S         -0.00026  -0.00024  -0.00183  -0.00350  -0.00013
 148        4PX         0.00010   0.00172  -0.00032  -0.00416   0.00066
 149        4PY         0.00001   0.00002   0.00005  -0.00003  -0.00194
 150        4PZ        -0.00001  -0.00012   0.00002   0.00028  -0.00007
 151 12  H  1S         -0.00020  -0.00019   0.00050   0.02175   0.03805
 152        2S          0.00029   0.00029  -0.00181   0.02534   0.04608
 153        3S          0.00101   0.00104  -0.00180  -0.00215   0.00056
 154        4PX         0.00018   0.00007   0.00009  -0.00228  -0.00490
 155        4PY        -0.00018  -0.00025  -0.00007   0.00388   0.00591
 156        4PZ        -0.00001  -0.00001  -0.00001   0.00021   0.00042
 157 13  H  1S          0.00049  -0.00002   0.00471   0.01961   0.04413
 158        2S         -0.00381  -0.00052   0.00079   0.02062   0.05235
 159        3S          0.00000  -0.00022  -0.00426  -0.00497  -0.00098
 160        4PX        -0.00086  -0.00009   0.00064   0.00190   0.00469
 161        4PY        -0.00151  -0.00013   0.00179   0.00310   0.00730
 162        4PZ         0.00003   0.00000  -0.00002  -0.00008  -0.00021
                          11        12        13        14        15
                           O         O         O         O         O
     Eigenvalues --    -0.83572  -0.71129  -0.68757  -0.62414  -0.57525
   1 1   O  1S         -0.02483   0.00045  -0.01526  -0.00331   0.01812
   2        2S         -0.04135   0.00082  -0.02547  -0.00572   0.03036
   3        2PX        -0.05093  -0.07868  -0.08581   0.11442  -0.03110
   4        2PY         0.02458   0.08068   0.01127  -0.08105   0.08943
   5        2PZ         0.00376   0.00640   0.00591  -0.00872   0.00304
   6        3S          0.12329  -0.00345   0.07655   0.01981  -0.09258
   7        3PX        -0.07370  -0.11683  -0.12663   0.17086  -0.04631
   8        3PY         0.03754   0.11942   0.01688  -0.11926   0.13003
   9        3PZ         0.00547   0.00950   0.00872  -0.01300   0.00450
  10        4S          0.10157  -0.01529   0.07121   0.01815  -0.12092
  11        4PX        -0.04426  -0.06821  -0.08248   0.10650  -0.01973
  12        4PY         0.01772   0.07006   0.00616  -0.08001   0.08942
  13        4PZ         0.00324   0.00556   0.00563  -0.00816   0.00222
  14        5D 0       -0.00042  -0.00093   0.00119   0.00031  -0.00292
  15        5D+1        0.00032   0.00072   0.00055  -0.00084   0.00017
  16        5D-1        0.00034   0.00015   0.00064  -0.00056   0.00002
  17        5D+2       -0.00599  -0.01184  -0.00755   0.01372  -0.00742
  18        5D-2       -0.00393   0.00000  -0.00859   0.00592   0.00172
  19 2   C  1S          0.06342   0.02425   0.04248   0.00993  -0.00429
  20        2S          0.10252   0.03984   0.06968   0.01605  -0.00694
  21        2PX        -0.03161   0.03642   0.02291  -0.10952   0.01828
  22        2PY        -0.00250   0.08984  -0.05801  -0.00653   0.03078
  23        2PZ         0.00211  -0.00123  -0.00246   0.00750  -0.00101
  24        3S         -0.27725  -0.11129  -0.19404  -0.04236   0.02013
  25        3PX        -0.03545   0.06309   0.04701  -0.16886   0.02642
  26        3PY        -0.00339   0.12875  -0.08353  -0.00893   0.04235
  27        3PZ         0.00235  -0.00252  -0.00452   0.01159  -0.00152
  28        4S         -0.14484  -0.09745  -0.12701  -0.01227  -0.00825
  29        4PX        -0.03759  -0.01078  -0.01364  -0.05864   0.01055
  30        4PY        -0.01385   0.05120  -0.05647   0.00342   0.04374
  31        4PZ         0.00239   0.00146   0.00011   0.00413  -0.00028
  32        5D 0        0.00863   0.00441   0.00628  -0.00137   0.00173
  33        5D+1        0.00057   0.00089   0.00091  -0.00080   0.00153
  34        5D-1       -0.00009   0.00054   0.00019  -0.00100   0.00133
  35        5D+2        0.00605  -0.00672  -0.00304   0.01129  -0.02199
  36        5D-2       -0.00318  -0.00811  -0.00438   0.01263  -0.01540
  37 3   C  1S          0.04210  -0.04700   0.00511  -0.01503  -0.00485
  38        2S          0.06771  -0.07646   0.00840  -0.02440  -0.00786
  39        2PX         0.02778  -0.02904   0.07795   0.00302  -0.09521
  40        2PY         0.02702   0.00864   0.04549   0.08670   0.02277
  41        2PZ        -0.00148   0.00206  -0.00464   0.00106   0.00670
  42        3S         -0.17623   0.20100  -0.02379   0.06499   0.01996
  43        3PX         0.04133  -0.04108   0.11153   0.00444  -0.13528
  44        3PY         0.03949   0.01093   0.06594   0.12526   0.03008
  45        3PZ        -0.00222   0.00289  -0.00664   0.00153   0.00947
  46        4S         -0.07014   0.14012   0.01834   0.05244   0.00730
  47        4PX         0.02081  -0.02750   0.04796   0.00040  -0.09298
  48        4PY         0.00163  -0.00825   0.01263   0.06100   0.02646
  49        4PZ        -0.00139   0.00172  -0.00309   0.00087   0.00661
  50        5D 0        0.00569  -0.00606   0.00055   0.00077   0.00054
  51        5D+1        0.00009  -0.00047  -0.00051  -0.00052   0.00082
  52        5D-1        0.00015   0.00006   0.00021  -0.00050   0.00007
  53        5D+2        0.00719  -0.00308   0.00739   0.01001  -0.01061
  54        5D-2       -0.00577   0.00201  -0.00479   0.00461   0.00119
  55 4   C  1S         -0.02718   0.03240  -0.04794  -0.01060   0.01376
  56        2S         -0.04365   0.05259  -0.07793  -0.01709   0.02260
  57        2PX         0.04086  -0.05911  -0.01987  -0.01375   0.08226
  58        2PY        -0.02655   0.01758   0.04299   0.07513   0.02066
  59        2PZ        -0.00316   0.00426   0.00197   0.00202  -0.00531
  60        3S          0.11375  -0.14014   0.20724   0.04500  -0.06264
  61        3PX         0.06058  -0.08505  -0.02680  -0.01868   0.11568
  62        3PY        -0.03886   0.02496   0.06254   0.10715   0.03034
  63        3PZ        -0.00468   0.00612   0.00272   0.00282  -0.00746
  64        4S          0.04769  -0.08326   0.12905   0.04832  -0.01496
  65        4PX         0.02466  -0.03961  -0.00793  -0.00616   0.04260
  66        4PY        -0.00897   0.01191   0.02645   0.05381   0.02031
  67        4PZ        -0.00180   0.00286   0.00091   0.00120  -0.00261
  68        5D 0       -0.00324   0.00280  -0.00439   0.00087   0.00190
  69        5D+1        0.00007   0.00008  -0.00074  -0.00012  -0.00017
  70        5D-1        0.00065  -0.00041   0.00006   0.00009   0.00049
  71        5D+2       -0.00806   0.00463   0.00331   0.00282   0.00405
  72        5D-2       -0.00658   0.00400   0.00002  -0.00224  -0.00883
  73 5   C  1S         -0.06932   0.02738   0.04326   0.01311  -0.02350
  74        2S         -0.11130   0.04444   0.07035   0.02156  -0.03828
  75        2PX        -0.01039  -0.01076  -0.02104   0.03261   0.10615
  76        2PY        -0.00519  -0.06462   0.05089  -0.03156   0.04629
  77        2PZ         0.00061  -0.00022   0.00219  -0.00268  -0.00653
  78        3S          0.28786  -0.11753  -0.18647  -0.05784   0.10040
  79        3PX        -0.01499  -0.01524  -0.03057   0.04560   0.15305
  80        3PY        -0.00743  -0.09235   0.07326  -0.04597   0.06621
  81        3PZ         0.00088  -0.00033   0.00317  -0.00377  -0.00942
  82        4S          0.15923  -0.07188  -0.12382  -0.03025   0.11290
  83        4PX        -0.01098  -0.00507  -0.01301   0.02457   0.07882
  84        4PY        -0.00320  -0.03228   0.02870  -0.01823   0.03641
  85        4PZ         0.00069  -0.00014   0.00131  -0.00193  -0.00483
  86        5D 0       -0.00907   0.00268   0.00431   0.00268  -0.00025
  87        5D+1       -0.00073   0.00028   0.00032   0.00080  -0.00015
  88        5D-1        0.00024  -0.00055   0.00017  -0.00011   0.00008
  89        5D+2       -0.00466   0.00204   0.00172  -0.00666   0.00143
  90        5D-2        0.00093   0.00675  -0.00460   0.00203  -0.00150
  91 6   C  1S         -0.03987  -0.04894   0.00687  -0.02915   0.02578
  92        2S         -0.06400  -0.07938   0.01123  -0.04744   0.04233
  93        2PX         0.03430  -0.00491  -0.07708   0.04122  -0.00851
  94        2PY         0.02596  -0.02288  -0.04234  -0.06515  -0.03989
  95        2PZ        -0.00194  -0.00001   0.00459  -0.00377  -0.00005
  96        3S          0.16630   0.20978  -0.03047   0.12678  -0.11432
  97        3PX         0.05134  -0.00425  -0.10975   0.05875  -0.01179
  98        3PY         0.03821  -0.03353  -0.06064  -0.09373  -0.05738
  99        3PZ        -0.00291  -0.00022   0.00653  -0.00539  -0.00011
 100        4S          0.08033   0.13222  -0.02633   0.11519  -0.10143
 101        4PX         0.01794  -0.00283  -0.04078   0.02772   0.00950
 102        4PY         0.01133  -0.01259  -0.02177  -0.04832  -0.03359
 103        4PZ        -0.00104   0.00000   0.00244  -0.00261  -0.00117
 104        5D 0       -0.00488  -0.00501   0.00061  -0.00046   0.00302
 105        5D+1        0.00001  -0.00072  -0.00043  -0.00003  -0.00008
 106        5D-1       -0.00021   0.00002   0.00014  -0.00021  -0.00072
 107        5D+2       -0.00712   0.00211   0.00652   0.00025   0.00813
 108        5D-2        0.00651   0.00118  -0.00374   0.00316   0.00760
 109 7   C  1S          0.03013   0.01129  -0.04963   0.01217  -0.03059
 110        2S          0.04848   0.01861  -0.08068   0.01978  -0.04965
 111        2PX         0.03553   0.07493   0.01445  -0.00047  -0.04161
 112        2PY        -0.02801  -0.02502  -0.03777  -0.06408  -0.06045
 113        2PZ        -0.00283  -0.00548  -0.00157  -0.00089   0.00183
 114        3S         -0.12622  -0.05167   0.21316  -0.05216   0.12955
 115        3PX         0.05353   0.10820   0.02100  -0.00106  -0.06110
 116        3PY        -0.04241  -0.03935  -0.05607  -0.08822  -0.08962
 117        3PZ        -0.00426  -0.00797  -0.00230  -0.00119   0.00266
 118        4S         -0.06299  -0.00809   0.14069  -0.02944   0.17311
 119        4PX         0.02382   0.04065   0.01915  -0.00892  -0.02516
 120        4PY        -0.00809   0.00216  -0.01868  -0.04458  -0.03972
 121        4PZ        -0.00176  -0.00275  -0.00161  -0.00003   0.00104
 122        5D 0        0.00416   0.00128  -0.00488   0.00230  -0.00052
 123        5D+1       -0.00002  -0.00014  -0.00084  -0.00039   0.00030
 124        5D-1       -0.00069  -0.00062   0.00002   0.00029  -0.00016
 125        5D+2        0.00890   0.00595   0.00401   0.00821  -0.00440
 126        5D-2        0.00666   0.00722   0.00068  -0.00670   0.00332
 127 8   H  1S          0.04955   0.07799   0.04885  -0.09077   0.06068
 128        2S          0.05152   0.09882   0.05808  -0.11603   0.09702
 129        3S          0.00867   0.01853   0.02148  -0.03688   0.01910
 130        4PX         0.00142   0.00561  -0.00326  -0.00042   0.00782
 131        4PY        -0.01041  -0.01216  -0.01056   0.01477  -0.00759
 132        4PZ        -0.00022  -0.00051   0.00010   0.00020  -0.00062
 133 9   H  1S         -0.02869   0.05955  -0.00515   0.06639   0.05937
 134        2S         -0.03234   0.07775  -0.00534   0.08625   0.07545
 135        3S          0.00295   0.01336   0.00037   0.01856   0.02505
 136        4PX        -0.00142   0.00334   0.00258   0.00790  -0.00057
 137        4PY         0.00529  -0.00939   0.00302  -0.00795  -0.00823
 138        4PZ         0.00017  -0.00036  -0.00013  -0.00064  -0.00008
 139 10  H  1S          0.01971  -0.03834   0.06400   0.05212   0.02771
 140        2S          0.02284  -0.04795   0.08168   0.06421   0.03523
 141        3S         -0.00052  -0.00513   0.01143   0.01283   0.00903
 142        4PX        -0.00005   0.00099  -0.00657  -0.00539   0.00043
 143        4PY        -0.00414   0.00668  -0.00836  -0.00544  -0.00554
 144        4PZ        -0.00006   0.00003   0.00033   0.00029  -0.00011
 145 11  H  1S          0.04910  -0.03249  -0.05458   0.00847   0.10578
 146        2S          0.05894  -0.04143  -0.06911   0.00796   0.13743
 147        3S          0.00226  -0.00457  -0.00929   0.00102   0.03813
 148        4PX        -0.00936   0.00577   0.00901  -0.00162  -0.01361
 149        4PY        -0.00031  -0.00265   0.00223  -0.00143   0.00176
 150        4PZ         0.00063  -0.00043  -0.00058   0.00009   0.00095
 151 12  H  1S          0.02869   0.05603  -0.00817   0.08397  -0.00660
 152        2S          0.03412   0.07060  -0.00976   0.10593  -0.01296
 153        3S          0.00022   0.00851  -0.00099   0.02106  -0.00479
 154        4PX        -0.00113  -0.00523  -0.00254  -0.00610  -0.00111
 155        4PY         0.00557   0.00782  -0.00305   0.01068  -0.00095
 156        4PZ         0.00016   0.00047   0.00012   0.00058   0.00006
 157 13  H  1S         -0.02034  -0.02089   0.06362   0.02600   0.08738
 158        2S         -0.02249  -0.02599   0.08197   0.03214   0.11091
 159        3S          0.00350   0.00052   0.01387   0.00571   0.02486
 160        4PX        -0.00031   0.00137   0.00651   0.00317   0.00602
 161        4PY        -0.00431  -0.00581   0.00829   0.00394   0.00862
 162        4PZ        -0.00004  -0.00018  -0.00031  -0.00015  -0.00028
                          16        17        18        19        20
                           O         O         O         O         O
     Eigenvalues --    -0.54188  -0.50804  -0.49332  -0.49207  -0.46334
   1 1   O  1S         -0.01699   0.00172  -0.00027   0.00432   0.02848
   2        2S         -0.02848   0.00299  -0.00044   0.00723   0.04784
   3        2PX        -0.09602  -0.06578   0.01284   0.01327   0.08294
   4        2PY        -0.08373   0.01494  -0.00369   0.02158   0.17329
   5        2PZ         0.00534   0.00399   0.20367   0.00345  -0.00263
   6        3S          0.08634  -0.00985   0.00129  -0.02148  -0.14631
   7        3PX        -0.13995  -0.09858   0.01900   0.01923   0.11846
   8        3PY        -0.12344   0.02138  -0.00539   0.02987   0.25214
   9        3PZ         0.00775   0.00598   0.30101   0.00510  -0.00365
  10        4S          0.10613  -0.01136   0.00230  -0.03148  -0.19510
  11        4PX        -0.11711  -0.07527   0.01752   0.02264   0.13739
  12        4PY        -0.09495   0.01732  -0.00462   0.02031   0.20739
  13        4PZ         0.00660   0.00444   0.27774   0.00429  -0.00557
  14        5D 0        0.00441   0.00100  -0.00140  -0.00095  -0.00827
  15        5D+1        0.00043   0.00035   0.01394   0.00015  -0.00047
  16        5D-1        0.00076   0.00040   0.01053   0.00027  -0.00021
  17        5D+2       -0.00095  -0.00505   0.00108   0.00016  -0.00541
  18        5D-2       -0.01234  -0.00589   0.00048  -0.00062   0.00714
  19 2   C  1S          0.01934  -0.02902   0.00004  -0.00284  -0.00499
  20        2S          0.03193  -0.04753   0.00006  -0.00470  -0.00837
  21        2PX         0.04615   0.08667   0.00967  -0.00365  -0.05128
  22        2PY        -0.08757  -0.03785  -0.00052  -0.05771  -0.04430
  23        2PZ        -0.00451  -0.00690   0.12986   0.00200   0.00352
  24        3S         -0.08941   0.13299  -0.00015   0.01340   0.02293
  25        3PX         0.07705   0.12896   0.01546  -0.00647  -0.08288
  26        3PY        -0.12605  -0.05508  -0.00088  -0.09045  -0.07067
  27        3PZ        -0.00723  -0.01029   0.20787   0.00328   0.00569
  28        4S         -0.09588   0.15684  -0.00034   0.01138   0.03720
  29        4PX        -0.00496   0.07144   0.01063   0.01470   0.04444
  30        4PY        -0.12117  -0.04207  -0.00259   0.00235   0.03998
  31        4PZ        -0.00144  -0.00594   0.14824   0.00200  -0.00174
  32        5D 0        0.00351   0.00189   0.00239  -0.00020  -0.00241
  33        5D+1        0.00177   0.00061  -0.01930  -0.00086  -0.00080
  34        5D-1       -0.00059   0.00011   0.00063   0.00143   0.00151
  35        5D+2       -0.01730  -0.00473  -0.00146   0.00187   0.00240
  36        5D-2        0.01099  -0.00135   0.00078  -0.02127  -0.02141
  37 3   C  1S         -0.02693   0.00918  -0.00035   0.01456   0.01321
  38        2S         -0.04385   0.01516  -0.00057   0.02383   0.02137
  39        2PX         0.03860   0.03636   0.00551  -0.06315   0.06485
  40        2PY         0.07673  -0.06129  -0.00326   0.09679   0.02383
  41        2PZ        -0.00158  -0.00352   0.06622   0.00696  -0.00358
  42        3S          0.11339  -0.03943   0.00159  -0.06688  -0.05250
  43        3PX         0.05481   0.04967   0.00851  -0.09060   0.10061
  44        3PY         0.11363  -0.08891  -0.00481   0.13872   0.03430
  45        3PZ        -0.00219  -0.00492   0.10434   0.01017  -0.00558
  46        4S          0.20171  -0.03716   0.00271  -0.10537  -0.20955
  47        4PX         0.03664   0.05457   0.00587  -0.06630  -0.00877
  48        4PY         0.02778  -0.03675  -0.00339   0.10140   0.06092
  49        4PZ        -0.00217  -0.00442   0.07355   0.00740   0.00206
  50        5D 0       -0.00146   0.00059  -0.00007   0.00063   0.00064
  51        5D+1       -0.00033   0.00070  -0.00209   0.00061  -0.00026
  52        5D-1        0.00100  -0.00083  -0.01147  -0.00030  -0.00039
  53        5D+2       -0.00056  -0.00628  -0.00023  -0.00784   0.00563
  54        5D-2       -0.01417   0.01400  -0.00076   0.00233   0.00333
  55 4   C  1S          0.02430  -0.00726  -0.00011   0.00859  -0.00894
  56        2S          0.03984  -0.01189  -0.00018   0.01406  -0.01471
  57        2PX        -0.08759  -0.00500   0.00160   0.06596  -0.05556
  58        2PY        -0.00083   0.10908  -0.00216   0.09682   0.02822
  59        2PZ         0.00591   0.00181   0.03928  -0.00232   0.00452
  60        3S         -0.10611   0.03030   0.00056  -0.04228   0.03869
  61        3PX        -0.12360  -0.00997   0.00280   0.09683  -0.08463
  62        3PY        -0.00162   0.15898  -0.00319   0.13824   0.04023
  63        3PZ         0.00833   0.00280   0.06449  -0.00332   0.00687
  64        4S         -0.14603   0.03862   0.00000  -0.00279   0.13064
  65        4PX        -0.04952   0.02319   0.00204   0.02734  -0.08836
  66        4PY         0.00913   0.07832  -0.00197   0.08847   0.01065
  67        4PZ         0.00348  -0.00054   0.03512   0.00011   0.00650
  68        5D 0        0.00136   0.00027   0.00055  -0.00010  -0.00063
  69        5D+1       -0.00049  -0.00015  -0.00533   0.00060   0.00023
  70        5D-1        0.00042  -0.00111  -0.00341   0.00024  -0.00022
  71        5D+2        0.00781   0.00608  -0.00014  -0.01090  -0.00414
  72        5D-2       -0.00831   0.01514  -0.00008  -0.00217   0.00398
  73 5   C  1S         -0.02062   0.01987   0.00002   0.00132  -0.00268
  74        2S         -0.03370   0.03250   0.00003   0.00215  -0.00445
  75        2PX         0.03735   0.08341   0.00300  -0.00988  -0.05460
  76        2PY        -0.07928  -0.04427   0.00070  -0.04811  -0.08697
  77        2PZ        -0.00371  -0.00639   0.03043   0.00057   0.00270
  78        3S          0.08896  -0.08921  -0.00010  -0.00520   0.01490
  79        3PX         0.05441   0.11956   0.00467  -0.01405  -0.07892
  80        3PY        -0.11497  -0.06347   0.00106  -0.07510  -0.12662
  81        3PZ        -0.00539  -0.00918   0.04899   0.00083   0.00394
  82        4S          0.10699  -0.09814   0.00014  -0.01468  -0.01579
  83        4PX         0.01836   0.07414   0.00291  -0.00276  -0.03414
  84        4PY        -0.05352  -0.03456  -0.00016  -0.00593  -0.06527
  85        4PZ        -0.00205  -0.00562   0.03191   0.00075   0.00168
  86        5D 0       -0.00113   0.00114   0.00059   0.00003   0.00012
  87        5D+1       -0.00073   0.00081  -0.00499   0.00032   0.00038
  88        5D-1       -0.00036   0.00003   0.00015  -0.00126  -0.00011
  89        5D+2        0.00956  -0.00958  -0.00028  -0.00202  -0.00529
  90        5D-2        0.00380   0.00127  -0.00029   0.01897   0.00289
  91 6   C  1S          0.01588  -0.00666   0.00027  -0.01217   0.00121
  92        2S          0.02597  -0.01091   0.00045  -0.01992   0.00201
  93        2PX         0.06168   0.08164   0.00356  -0.05920   0.08635
  94        2PY         0.06416  -0.06732  -0.00293   0.09599   0.06813
  95        2PZ        -0.00322  -0.00667   0.03837   0.00628  -0.00451
  96        3S         -0.06988   0.02676  -0.00129   0.05713  -0.00407
  97        3PX         0.08742   0.11449   0.00562  -0.08737   0.12762
  98        3PY         0.09186  -0.09896  -0.00432   0.13745   0.10027
  99        3PZ        -0.00455  -0.00945   0.06227   0.00931  -0.00663
 100        4S         -0.08057   0.05223  -0.00083   0.05626   0.00275
 101        4PX         0.04376   0.07769   0.00317  -0.03811   0.06890
 102        4PY         0.04625  -0.04373  -0.00267   0.09396   0.06025
 103        4PZ        -0.00228  -0.00605   0.03891   0.00482  -0.00341
 104        5D 0        0.00056   0.00013   0.00072  -0.00029   0.00055
 105        5D+1        0.00011  -0.00038  -0.00533  -0.00075   0.00079
 106        5D-1       -0.00066   0.00076   0.00334   0.00020  -0.00033
 107        5D+2        0.00151   0.00332  -0.00039   0.00806  -0.00952
 108        5D-2        0.00916  -0.01212   0.00034  -0.00364   0.00731
 109 7   C  1S         -0.01026   0.01049   0.00014  -0.00877  -0.00456
 110        2S         -0.01687   0.01731   0.00023  -0.01431  -0.00732
 111        2PX        -0.08704  -0.04800   0.00340   0.06020  -0.09660
 112        2PY         0.01848   0.09055  -0.00280   0.10591  -0.02102
 113        2PZ         0.00617   0.00444   0.06347  -0.00118   0.00666
 114        3S          0.04543  -0.04457  -0.00066   0.04156   0.01707
 115        3PX        -0.12392  -0.07107   0.00571   0.08756  -0.14384
 116        3PY         0.02782   0.13180  -0.00421   0.15213  -0.03240
 117        3PZ         0.00880   0.00651   0.10342  -0.00152   0.00996
 118        4S          0.02257  -0.07621  -0.00130   0.04255   0.06669
 119        4PX        -0.04478  -0.01543   0.00340   0.03779  -0.09736
 120        4PY         0.00892   0.05000  -0.00289   0.09937  -0.04291
 121        4PZ         0.00315   0.00163   0.06047   0.00019   0.00641
 122        5D 0       -0.00068   0.00102   0.00055  -0.00049   0.00052
 123        5D+1        0.00068   0.00063  -0.00204  -0.00062   0.00009
 124        5D-1       -0.00017   0.00115   0.01171   0.00003  -0.00033
 125        5D+2       -0.01000  -0.01076  -0.00019   0.00795   0.00093
 126        5D-2        0.00488  -0.01557   0.00078   0.00138   0.00559
 127 8   H  1S         -0.00784   0.03188  -0.00050   0.01096   0.07555
 128        2S         -0.01944   0.04098  -0.00108   0.02501   0.13655
 129        3S          0.01951   0.02448  -0.00004   0.00636   0.01783
 130        4PX        -0.01334  -0.00439   0.00125   0.00345   0.01877
 131        4PY        -0.00264  -0.00637  -0.00021  -0.00059  -0.00591
 132        4PZ         0.00086   0.00015   0.02149   0.00020  -0.00123
 133 9   H  1S          0.06969  -0.07253  -0.00179   0.08334  -0.02672
 134        2S          0.09851  -0.10403  -0.00267   0.11975  -0.04730
 135        3S          0.03246  -0.04393  -0.00115   0.04899  -0.01578
 136        4PX         0.00661  -0.00457   0.00022   0.00367   0.00044
 137        4PY        -0.00380   0.00650   0.00014  -0.00886   0.00298
 138        4PZ        -0.00050   0.00039   0.00466  -0.00028   0.00004
 139 10  H  1S         -0.06291   0.08666  -0.00149   0.08908   0.01010
 140        2S         -0.08686   0.12009  -0.00215   0.12721   0.01598
 141        3S         -0.03065   0.04552  -0.00084   0.05070   0.00986
 142        4PX         0.00019  -0.00748   0.00024  -0.00361  -0.00227
 143        4PY         0.00769  -0.00632   0.00012  -0.00917   0.00046
 144        4PZ         0.00010   0.00041   0.00261   0.00016   0.00018
 145 11  H  1S          0.05305   0.04377   0.00078  -0.01054  -0.04628
 146        2S          0.07236   0.06248   0.00111  -0.01577  -0.06883
 147        3S          0.02628   0.01966   0.00045  -0.00719  -0.03313
 148        4PX        -0.00539  -0.00653   0.00004   0.00109   0.00451
 149        4PY        -0.00374  -0.00215   0.00005  -0.00333  -0.00411
 150        4PZ         0.00031   0.00041   0.00183  -0.00009  -0.00035
 151 12  H  1S         -0.03785   0.09080   0.00178  -0.08078  -0.01530
 152        2S         -0.04939   0.12652   0.00253  -0.11467  -0.02378
 153        3S         -0.01779   0.04769   0.00097  -0.04293  -0.00658
 154        4PX         0.00518  -0.00387   0.00005   0.00399   0.00547
 155        4PY        -0.00107   0.00902   0.00014  -0.00836   0.00116
 156        4PZ        -0.00037   0.00040   0.00234  -0.00035  -0.00033
 157 13  H  1S          0.03521  -0.05817   0.00156  -0.09252   0.06258
 158        2S          0.04932  -0.08156   0.00211  -0.13028   0.08148
 159        3S          0.02504  -0.03150   0.00086  -0.05160   0.00632
 160        4PX        -0.00259  -0.00734   0.00041  -0.00514   0.00222
 161        4PY         0.00542  -0.00275   0.00007  -0.00935   0.00574
 162        4PZ         0.00026   0.00044   0.00475   0.00030  -0.00004
                          21        22        23        24        25
                           O         O         O         O         O
     Eigenvalues --    -0.42364  -0.41117  -0.40096  -0.31051  -0.27946
   1 1   O  1S         -0.00059  -0.00006  -0.01072   0.00000  -0.00004
   2        2S         -0.00105  -0.00010  -0.01800   0.00000  -0.00007
   3        2PX         0.07420   0.01095  -0.03779  -0.00038   0.00936
   4        2PY         0.03740  -0.00206  -0.07502   0.00005  -0.00171
   5        2PZ        -0.00505   0.15993   0.00057  -0.00533   0.13660
   6        3S          0.00449   0.00028   0.05436   0.00001   0.00021
   7        3PX         0.10812   0.01589  -0.05314  -0.00056   0.01330
   8        3PY         0.05595  -0.00296  -0.10647   0.00007  -0.00243
   9        3PZ        -0.00734   0.23198   0.00075  -0.00796   0.19413
  10        4S          0.00014   0.00068   0.08104   0.00008   0.00022
  11        4PX         0.09694   0.01673  -0.07159  -0.00060   0.01654
  12        4PY         0.04929  -0.00308  -0.09668   0.00014  -0.00298
  13        4PZ        -0.00668   0.24485   0.00201  -0.00826   0.24313
  14        5D 0       -0.00198  -0.00049   0.00352   0.00002   0.00039
  15        5D+1       -0.00029   0.00552   0.00029  -0.00001  -0.00210
  16        5D-1       -0.00042   0.00795  -0.00025   0.00065   0.00642
  17        5D+2        0.00151   0.00048   0.00173   0.00001  -0.00007
  18        5D-2        0.00610   0.00050   0.00163   0.00004   0.00048
  19 2   C  1S          0.00875   0.00003   0.00186   0.00000  -0.00001
  20        2S          0.01458   0.00004   0.00307   0.00001  -0.00001
  21        2PX        -0.04608  -0.00047   0.01491   0.00029  -0.00842
  22        2PY         0.01651   0.00072   0.12695  -0.00010   0.00177
  23        2PZ         0.00334  -0.00687   0.00071   0.00428  -0.12317
  24        3S         -0.04262  -0.00012  -0.00833  -0.00001   0.00002
  25        3PX        -0.06921  -0.00111   0.02431   0.00048  -0.01429
  26        3PY         0.02257   0.00112   0.18586  -0.00016   0.00300
  27        3PZ         0.00499  -0.01625   0.00088   0.00693  -0.20893
  28        4S         -0.02492  -0.00022  -0.02228  -0.00010   0.00000
  29        4PX        -0.03306   0.00076  -0.04546   0.00031  -0.01145
  30        4PY         0.05176   0.00039   0.09792  -0.00028   0.00219
  31        4PZ         0.00287   0.00971   0.00429   0.00460  -0.16199
  32        5D 0       -0.00181   0.00335   0.00053   0.00063   0.00291
  33        5D+1       -0.00212  -0.02819   0.00094   0.00036  -0.02439
  34        5D-1       -0.00018  -0.00082  -0.00121   0.02626  -0.00012
  35        5D+2        0.02819  -0.00193  -0.00643   0.00040  -0.00165
  36        5D-2       -0.00259   0.00037   0.01914   0.00177   0.00030
  37 3   C  1S         -0.00740   0.00000  -0.00511  -0.00001   0.00004
  38        2S         -0.01239   0.00001  -0.00839  -0.00002   0.00006
  39        2PX         0.11144  -0.00456  -0.04039   0.00905  -0.00591
  40        2PY        -0.01642   0.00048  -0.09928  -0.00185   0.00131
  41        2PZ        -0.00769  -0.06895   0.00163   0.13400  -0.08822
  42        3S          0.03803  -0.00001   0.02333   0.00005  -0.00019
  43        3PX         0.15795  -0.00735  -0.06013   0.01429  -0.00939
  44        3PY        -0.02594   0.00086  -0.14361  -0.00294   0.00209
  45        3PZ        -0.01091  -0.11111   0.00252   0.21153  -0.14020
  46        4S          0.00003  -0.00020   0.08605   0.00019  -0.00005
  47        4PX         0.12683  -0.00603   0.02190   0.01452  -0.01083
  48        4PY        -0.00979   0.00075  -0.12451  -0.00308   0.00214
  49        4PZ        -0.00860  -0.08855  -0.00288   0.21627  -0.15892
  50        5D 0       -0.00028   0.00141  -0.00062  -0.00145  -0.00120
  51        5D+1       -0.00053  -0.01126   0.00018   0.01204   0.01314
  52        5D-1       -0.00073   0.00347  -0.00151  -0.00067   0.01381
  53        5D+2        0.00932  -0.00070   0.00189   0.00081   0.00109
  54        5D-2        0.00893   0.00054   0.02223  -0.00022   0.00075
  55 4   C  1S          0.00489   0.00002   0.00532   0.00001  -0.00001
  56        2S          0.00797   0.00004   0.00885   0.00002  -0.00002
  57        2PX        -0.11820  -0.00725   0.01906   0.00832   0.00430
  58        2PY         0.03978   0.00215   0.09999  -0.00175  -0.00092
  59        2PZ         0.00876  -0.10391   0.00066   0.12234   0.06411
  60        3S         -0.02048  -0.00012  -0.02645  -0.00006   0.00005
  61        3PX        -0.17097  -0.01147   0.03108   0.01326   0.00693
  62        3PY         0.05667   0.00331   0.14433  -0.00278  -0.00148
  63        3PZ         0.01268  -0.16488   0.00079   0.19488   0.10309
  64        4S         -0.04780   0.00024  -0.06903  -0.00005   0.00020
  65        4PX        -0.09304  -0.00921   0.05590   0.01251   0.00694
  66        4PY         0.02588   0.00251   0.11999  -0.00258  -0.00151
  67        4PZ         0.00688  -0.13193  -0.00139   0.18488   0.10447
  68        5D 0       -0.00029  -0.00001   0.00069   0.00184  -0.00246
  69        5D+1       -0.00144   0.00267   0.00109  -0.01533   0.01809
  70        5D-1       -0.00030   0.01214  -0.00150   0.00106  -0.01276
  71        5D+2        0.02050   0.00034  -0.00998  -0.00104   0.00105
  72        5D-2       -0.00014   0.00091   0.02302   0.00029  -0.00114
  73 5   C  1S          0.00178   0.00000  -0.00090   0.00000  -0.00001
  74        2S          0.00296   0.00001  -0.00145   0.00000  -0.00002
  75        2PX         0.12897  -0.00753  -0.01490  -0.00059   0.00946
  76        2PY        -0.02836   0.00091  -0.10953   0.00013  -0.00207
  77        2PZ        -0.00897  -0.11286  -0.00003  -0.00856   0.13976
  78        3S         -0.01243  -0.00001   0.00355   0.00001   0.00005
  79        3PX         0.18563  -0.01202  -0.02161  -0.00092   0.01500
  80        3PY        -0.04047   0.00159  -0.15373   0.00021  -0.00327
  81        3PZ        -0.01287  -0.17963   0.00012  -0.01346   0.22123
  82        4S          0.02164  -0.00018   0.02437   0.00003  -0.00003
  83        4PX         0.13069  -0.00908  -0.03157  -0.00089   0.01587
  84        4PY        -0.02552   0.00140  -0.10751   0.00026  -0.00339
  85        4PZ        -0.00902  -0.13873   0.00128  -0.01303   0.23353
  86        5D 0        0.00037  -0.00150  -0.00022   0.00056   0.00076
  87        5D+1       -0.00184   0.01282   0.00041   0.00036  -0.00617
  88        5D-1       -0.00069  -0.00019  -0.00091   0.02343   0.00152
  89        5D+2        0.02808   0.00091  -0.00420   0.00037  -0.00040
  90        5D-2        0.00399  -0.00012   0.01451   0.00159   0.00019
  91 6   C  1S          0.00423   0.00000  -0.00456  -0.00001   0.00000
  92        2S          0.00689   0.00000  -0.00755  -0.00002   0.00000
  93        2PX        -0.10732  -0.00682   0.01118  -0.00898   0.00323
  94        2PY         0.01029   0.00219   0.10509   0.00203  -0.00074
  95        2PZ         0.00760  -0.10038   0.00134  -0.13194   0.04744
  96        3S         -0.01602   0.00002   0.02319   0.00004  -0.00002
  97        3PX        -0.15392  -0.01084   0.01473  -0.01428   0.00527
  98        3PY         0.01574   0.00340   0.15054   0.00322  -0.00120
  99        3PZ         0.01094  -0.15970   0.00209  -0.20986   0.07695
 100        4S         -0.05505   0.00012  -0.00286   0.00005  -0.00019
 101        4PX        -0.08875  -0.00868  -0.00735  -0.01367   0.00518
 102        4PY         0.01840   0.00271   0.09937   0.00314  -0.00105
 103        4PZ         0.00650  -0.12565   0.00265  -0.20158   0.07381
 104        5D 0       -0.00025  -0.00060  -0.00044  -0.00163  -0.00190
 105        5D+1       -0.00138   0.00237   0.00008   0.01366   0.01899
 106        5D-1       -0.00097  -0.01215  -0.00150  -0.00053   0.01317
 107        5D+2        0.02202   0.00003   0.00303   0.00093   0.00148
 108        5D-2        0.00978  -0.00071   0.02252  -0.00025   0.00060
 109 7   C  1S         -0.01011  -0.00002   0.00420   0.00000   0.00000
 110        2S         -0.01667  -0.00004   0.00698   0.00000   0.00000
 111        2PX         0.10319  -0.00435   0.00666  -0.00863  -0.00664
 112        2PY        -0.00989   0.00043  -0.10164   0.00197   0.00151
 113        2PZ        -0.00709  -0.06475  -0.00176  -0.12717  -0.09738
 114        3S          0.04632   0.00007  -0.02286   0.00000  -0.00003
 115        3PX         0.14375  -0.00695   0.01147  -0.01368  -0.01058
 116        3PY        -0.01206   0.00075  -0.14747   0.00310   0.00238
 117        3PZ        -0.00984  -0.10316  -0.00264  -0.20167  -0.15512
 118        4S          0.07574   0.00019   0.00447  -0.00011   0.00022
 119        4PX         0.09729  -0.00583  -0.01014  -0.01334  -0.01107
 120        4PY         0.00047   0.00065  -0.08540   0.00301   0.00266
 121        4PZ        -0.00652  -0.08399  -0.00029  -0.19777  -0.16760
 122        5D 0       -0.00039   0.00125   0.00003   0.00167  -0.00159
 123        5D+1       -0.00064  -0.01139   0.00090  -0.01427   0.01050
 124        5D-1       -0.00023  -0.00392  -0.00159  -0.00084  -0.01365
 125        5D+2        0.00930  -0.00086  -0.00656  -0.00098   0.00052
 126        5D-2        0.00154   0.00006   0.02488   0.00016  -0.00110
 127 8   H  1S         -0.00388  -0.00021  -0.03987  -0.00001  -0.00015
 128        2S         -0.00443  -0.00040  -0.07940  -0.00009  -0.00030
 129        3S         -0.02361  -0.00017  -0.02415   0.00000  -0.00018
 130        4PX         0.00706   0.00114  -0.00787   0.00004   0.00106
 131        4PY         0.00156  -0.00016   0.00312   0.00000  -0.00015
 132        4PZ        -0.00051   0.01711   0.00044   0.00077   0.01549
[...]
 Total                   69.626             21.641             74.425
 Electronic               0.000              0.000              0.000
 Translational            0.889              2.981             39.535
 Rotational               0.889              2.981             26.877
 Vibrational             67.848             15.680              8.014
 Vibration     1          0.653              1.792              1.862
 Vibration     2          0.739              1.541              1.095
 Vibration     3          0.778              1.438              0.909
 Vibration     4          0.782              1.428              0.894
 Vibration     5          0.874              1.208              0.612
 Vibration     6          0.892              1.167              0.571
                       Q            Log10(Q)             Ln(Q)
 Total Bot       0.623593D-35        -35.205099        -81.062735
 Total V=0       0.206306D+14         13.314512         30.657796
 Vib (Bot)       0.104271D-47        -47.981835       -110.482259
 Vib (Bot)    1  0.847455D+00         -0.071883         -0.165517
 Vib (Bot)    2  0.498089D+00         -0.302693         -0.696976
 Vib (Bot)    3  0.424697D+00         -0.371921         -0.856379
 Vib (Bot)    4  0.418965D+00         -0.377823         -0.869969
 Vib (Bot)    5  0.311353D+00         -0.506747         -1.166829
 Vib (Bot)    6  0.295527D+00         -0.529403         -1.218994
 Vib (V=0)       0.344965D+01          0.537775          1.238272
 Vib (V=0)    1  0.148396D+01          0.171423          0.394715
 Vib (V=0)    2  0.120576D+01          0.081260          0.187108
 Vib (V=0)    3  0.115602D+01          0.062967          0.144987
 Vib (V=0)    4  0.115233D+01          0.061576          0.141784
 Vib (V=0)    5  0.108902D+01          0.037034          0.085275
 Vib (V=0)    6  0.108081D+01          0.033748          0.077708
 Electronic      0.100000D+01          0.000000          0.000000
 Translational   0.358457D+08          7.554437         17.394734
 Rotational      0.166840D+06          5.222300         12.024790
 -------------------------------------------------------------------
 Center     Atomic                   Forces (Hartrees/Bohr)
 Number     Number              X              Y              Z
 -------------------------------------------------------------------
      1        8          -0.000049356   -0.000095440    0.000019445
      2        6           0.000049201    0.000107754   -0.000001967
      3        6          -0.000170871   -0.000111990   -0.000007435
      4        6           0.000062940    0.000003454   -0.000010101
      5        6          -0.000012665    0.000121640   -0.000001003
      6        6          -0.000098608   -0.000041156    0.000006688
      7        6           0.000169496   -0.000088125   -0.000008862
      8        1           0.000011421    0.000030523   -0.000011370
      9        1           0.000048003    0.000049941   -0.000001052
     10        1           0.000013870    0.000004948   -0.000002182
     11        1           0.000016952   -0.000021847    0.000003284
     12        1           0.000015985    0.000009008    0.000007446
     13        1          -0.000056369    0.000031288    0.000007110
 -------------------------------------------------------------------
 Cartesian Forces:  Max     0.000170871 RMS     0.000061270

 GradGradGradGradGradGradGradGradGradGradGradGradGradGradGradGradGradGrad
 Berny optimization.
 Search for a local minimum.
 Step number   1 out of a maximum of    2
 All quantities printed in internal units (Hartrees-Bohrs-Radians)
 Second derivative matrix not updated -- analytic derivatives used.
 ITU=  0
     Eigenvalues ---    0.00514   0.01340   0.01536   0.02268   0.02782
     Eigenvalues ---    0.03013   0.04863   0.05224   0.05639   0.06101
     Eigenvalues ---    0.07468   0.08198   0.08863   0.10127   0.12209
     Eigenvalues ---    0.18339   0.19014   0.19079   0.21515   0.24821
     Eigenvalues ---    0.27323   0.40881   0.46554   0.68261   0.69211
     Eigenvalues ---    0.80126   0.92828   1.00329   1.09305   1.14806
     Eigenvalues ---    1.17199   1.31968   1.34969
 Angle between quadratic step and forces=  67.25 degrees.
 Linear search not attempted -- first point.
 Variable       Old X    -DE/DX   Delta X   Delta X   Delta X     New X
                                 (Linear)    (Quad)   (Total)
    X1        2.01000  -0.00005   0.00000   0.00002   0.00002   2.01003
    Y1        0.05893  -0.00010   0.00000  -0.00058  -0.00058   0.05835
    Z1        0.27915   0.00002   0.00000   0.00057   0.00057   0.27973
    X2        4.57110   0.00005   0.00000   0.00009   0.00009   4.57119
    Y2        0.20706   0.00011   0.00000   0.00020   0.00020   0.20726
    Z2        0.10474   0.00000   0.00000   0.00004   0.00004   0.10478
    X3        5.85804  -0.00017   0.00000  -0.00024  -0.00024   5.85780
    Y3        2.50171  -0.00011   0.00000   0.00007   0.00007   2.50178
    Z3        0.05116  -0.00001   0.00000  -0.00006  -0.00006   0.05110
    X4        8.47998   0.00006   0.00000   0.00007   0.00007   8.48004
    Y4        2.52305   0.00000   0.00000   0.00005   0.00005   2.52310
    Z4       -0.12700  -0.00001   0.00000  -0.00008  -0.00008  -0.12709
    X5        9.82668  -0.00001   0.00000  -0.00008  -0.00008   9.82660
    Y5        0.27338   0.00012   0.00000   0.00019   0.00019   0.27357
    Z5       -0.25105   0.00000   0.00000  -0.00004  -0.00004  -0.25109
    X6        8.52270  -0.00010   0.00000  -0.00010  -0.00010   8.52260
    Y6       -2.01181  -0.00004   0.00000  -0.00010  -0.00010  -2.01191
    Z6       -0.19669   0.00001   0.00000  -0.00009  -0.00009  -0.19678
    X7        5.90792   0.00017   0.00000   0.00020   0.00020   5.90812
    Y7       -2.05793  -0.00009   0.00000  -0.00002  -0.00002  -2.05795
    Z7       -0.01969  -0.00001   0.00000  -0.00012  -0.00012  -0.01981
    X8        1.31486   0.00001   0.00000  -0.00017  -0.00017   1.31469
    Y8        1.73428   0.00003   0.00000  -0.00052  -0.00052   1.73376
    Z8        0.34375  -0.00001   0.00000  -0.00139  -0.00139   0.34236
    X9        4.81051   0.00005   0.00000   0.00089   0.00089   4.81140
    Y9        4.26309   0.00005   0.00000   0.00077   0.00077   4.26386
    Z9        0.14777   0.00000   0.00000   0.00032   0.00032   0.14808
   X10        9.46760   0.00001   0.00000   0.00024   0.00024   9.46785
   Y10        4.31615   0.00000   0.00000  -0.00002  -0.00002   4.31613
   Z10       -0.16845   0.00000   0.00000   0.00009   0.00009  -0.16836
   X11       11.86738   0.00002   0.00000  -0.00001  -0.00001  11.86737
   Y11        0.29738  -0.00002   0.00000  -0.00037  -0.00037   0.29701
   Z11       -0.38965   0.00000   0.00000   0.00022   0.00022  -0.38943
   X12        9.55145   0.00002   0.00000   0.00026   0.00026   9.55171
   Y12       -3.77974   0.00001   0.00000   0.00011   0.00011  -3.77964
   Z12       -0.29310   0.00001   0.00000   0.00005   0.00005  -0.29304
   X13        4.86235  -0.00006   0.00000  -0.00109  -0.00109   4.86126
   Y13       -3.81611   0.00003   0.00000   0.00073   0.00073  -3.81538
   Z13        0.02457   0.00001   0.00000  -0.00005  -0.00005   0.02453
         Item               Value     Threshold  Converged?
 Maximum Force            0.000171     0.000450     YES
 RMS     Force            0.000061     0.000300     YES
 Maximum Displacement     0.001393     0.001800     YES
 RMS     Displacement     0.000415     0.001200     YES
 Predicted change in Energy=-1.916949D-07
 Optimization completed.
    -- Stationary point found.
 GradGradGradGradGradGradGradGradGradGradGradGradGradGradGradGradGradGrad


 Test job not archived.
 1\1\GINC-LEGACY-N0\Freq\RM062X\6-311G(d,p)\C6H6O1\TWS35\14-Aug-2020\0\
 \#N Geom=AllCheck Guess=TCheck SCRF=Check Test GenChk RM062X/6-311G(d,
 p) Freq\\Oc1ccccc1\\0,1\O,1.0636484054,0.031185788,0.1477211133\C,2.41
 89230388,0.1095726916,0.0554259809\C,3.0999413938,1.323846025,0.027071
 0612\C,4.4874109916,1.3351428886,-0.0672067612\C,5.2000559641,0.144667
 5367,-0.1328497209\C,4.5100197555,-1.0646062528,-0.1040862662\C,3.1263
 363077,-1.0890113764,-0.0104203564\H,0.6957928602,0.9177416697,0.18190
 50142\H,2.5456125395,2.2559300594,0.078195097\H,5.0100403743,2.2840057
 496,-0.0891401127\H,6.2799450484,0.1573664217,-0.2061936448\H,5.054410
 6452,-2.0001545327,-0.1551010633\H,2.5730446732,-2.0193991855,0.013004
 0354\\Version=EM64L-G09RevD.01\HF=-307.4173453\RMSD=1.297e-09\RMSF=6.1
 27e-05\ZeroPoint=0.105485\Thermal=0.110956\Dipole=0.0026847,0.5388838,
 0.0047386\DipoleDeriv=-1.5969296,0.0280344,0.0823628,0.0006807,-0.1951
 605,0.0013281,0.0843706,-0.0004901,-0.3977217,1.5168096,-0.0047445,-0.
 0952877,0.0021273,0.0509993,-0.0013329,-0.0970758,-0.0003238,0.1328127
 ,-0.2889007,0.0676954,0.0071769,-0.281923,-0.0091875,0.0229168,0.00250
 83,-0.0024164,-0.2011301,0.1134972,-0.1261992,-0.0183733,0.0460729,0.1
 483187,0.0006066,-0.0158867,0.0128891,-0.1301223,-0.0310136,0.0143452,
 -0.0094728,-0.014923,-0.2990545,-0.0011673,-0.0094957,-0.0029666,-0.16
 86693,0.1397063,0.0996078,-0.0171116,-0.0274139,0.1630619,0.0066957,-0
 .0185215,-0.0026899,-0.129098,-0.2830917,-0.0474592,0.0071993,0.259125
 6,0.0030514,-0.0153557,0.01126,0.0062479,-0.1762232,0.3942558,-0.06323
 13,-0.0043662,-0.011531,0.162809,-0.0008539,-0.0040118,0.0029082,0.340
 2507,-0.0114669,0.0858286,0.0126473,0.0787946,-0.0213232,-0.00794,0.01
 25522,-0.007869,0.1562056,0.0404658,-0.0600153,0.0056374,-0.0652113,-0
 .0393577,0.0019278,0.0053146,0.0012172,0.136425,-0.0748967,-0.0022134,
 0.0154045,-0.0014875,0.067145,-0.0011302,0.0150927,-0.0009938,0.148661
 6,0.0387493,0.0649548,0.007418,0.0658205,-0.0359709,-0.0070014,0.00728
 03,-0.0064614,0.1347405,0.0428151,-0.0566033,0.0067653,-0.0501319,0.00
 4669,0.0013066,0.0066127,0.0009486,0.1538686\Polar=82.0371767,-1.42820
 29,74.8703335,-3.5387752,0.7449111,30.2746804\PG=C01 [X(C6H6O1)]\NImag
 =0\\0.50934886,-0.14961548,0.58591409,-0.03445948,0.01499361,0.0303018
 8,-0.32077018,0.00833622,0.01887586,0.71536838,-0.04311607,-0.11074041
 ,0.00217842,-0.00778713,0.72827843,0.01833930,-0.00142448,-0.04484978,
 -0.03745525,0.00897321,0.16190318,-0.04270862,-0.04602183,0.00278251,-
 0.16728048,-0.02910700,0.00644929,0.71589447,-0.00667565,0.00147812,0.
 00027821,-0.11804759,-0.29691136,0.00449031,-0.02889035,0.72093465,0.0
 0348394,0.00305004,0.00870261,0.00505417,-0.00165176,-0.06458375,-0.04
 084491,0.01045974,0.12242955,0.00353481,0.00724693,0.00043863,-0.02477
 589,-0.09677494,0.00019172,-0.35087248,0.03444513,0.02029494,0.6942895
 3,-0.00163444,-0.00891418,-0.00016487,-0.03206777,0.04659224,0.0028790
 1,-0.03899585,-0.12795583,0.00159809,0.02687654,0.73677687,0.00029040,
 -0.00072279,0.00793018,0.00116930,0.00730200,-0.00050561,0.01912508,-0
 .00342381,-0.05741313,-0.03715727,0.00765975,0.13836424,-0.00702459,-0
 .00036595,0.00041511,0.00429578,0.00232010,-0.00064314,-0.02955316,0.0
 2577206,0.00281620,-0.18776693,0.13483490,0.01044015,0.75610991,-0.001
 58525,0.00779472,0.00028163,0.00256430,-0.09196336,-0.00151061,0.08422
 356,0.04034636,-0.00524028,0.05956484,-0.29256725,-0.00768065,-0.00184
 890,0.67737162,0.00035378,0.00016589,-0.00127845,-0.00059490,-0.001468
 20,-0.00452014,0.00369911,-0.00124942,0.00635426,0.00928483,-0.0128403
 7,-0.06281682,-0.04214971,0.00852846,0.13150670,0.00618841,-0.00597942
 ,-0.00019958,-0.03036371,0.09233460,0.00341302,-0.05760864,-0.03049863
 ,0.00329855,0.07259151,-0.02884088,-0.00500240,-0.18236781,-0.05443666
 ,0.00725392,0.70372685,0.00131045,-0.01016656,-0.00031414,0.02849070,0
 .05117278,-0.00118839,-0.03631434,-0.02363617,0.00221393,0.03155806,-0
 .06197888,-0.00317288,-0.12950707,-0.29227434,0.00538322,-0.02894590,0
 .73206536,-0.00004963,0.00017257,0.00529773,0.00243774,-0.00553199,-0.
 00076331,0.00320027,0.00181388,-0.00324169,-0.00411555,0.00098297,0.00
 639234,0.00606832,0.00021858,-0.06295820,-0.03875566,0.01034447,0.1409
 0394,-0.04422690,0.05146383,0.00430340,-0.16114906,0.03460133,0.006690
 31,0.06795253,0.02640886,-0.00386279,-0.05868024,0.03482348,0.00437781
 ,-0.02613928,-0.08502988,0.00093462,-0.36144296,0.03187951,0.02101661,
 0.73156771,0.01266763,0.00476642,-0.00090253,0.11780700,-0.29249171,-0
 .01138805,-0.02479578,-0.05009998,0.00086814,0.03151801,-0.02232972,-0
 .00247918,-0.02831422,0.03974324,0.00239871,-0.04165044,-0.13219352,0.
 00169168,0.03765324,0.72625889,0.00371845,-0.00356278,0.00694364,0.008
 00213,-0.00573822,-0.06735074,-0.00459666,-0.00264695,0.00634043,0.004
 33912,-0.00269268,-0.00279121,0.00175961,0.00629992,0.00617511,0.01984
 938,-0.00333362,-0.05779699,-0.04049890,0.00701242,0.12619363,-0.10696
 026,0.13637221,0.00863114,-0.02502458,0.04652097,0.00192948,0.00347319
 ,0.00156368,-0.00029154,-0.00105042,0.00048361,0.00004563,0.00056337,-
 0.00091865,-0.00005017,0.00055933,0.00226328,0.00012075,-0.00691514,-0
 .00278041,0.00058193,0.13578030,0.18903690,-0.47506839,-0.01658005,-0.
 00056918,0.00047212,0.00010043,-0.00588389,0.00387491,0.00045940,0.000
 15789,-0.00102620,-0.00003306,-0.00043495,-0.00004318,0.00002503,0.000
 27838,-0.00022727,-0.00004764,-0.00163532,0.00227411,0.00011883,-0.181
 39829,0.47040037,0.00903216,-0.01293811,-0.00483404,0.00154057,-0.0031
 6866,-0.00313225,-0.00032209,-0.00002228,-0.00082374,0.00002542,-0.000
 02436,-0.00060596,-0.00004287,0.00004722,0.00009333,0.00010345,-0.0001
 8501,0.00167659,0.00059461,0.00018659,0.00216757,-0.01093628,0.0159730
 9,0.00579267,0.00360302,-0.00052882,-0.00052928,0.00767132,-0.01298688
 ,-0.00043801,-0.12798029,0.11878580,0.00860007,-0.01000619,0.02883392,
 0.00122268,-0.00540461,-0.00160248,0.00085033,-0.00102394,-0.00079040,
 -0.00000458,-0.00054821,-0.00347474,0.00037511,-0.00036113,0.00072048,
 0.00006569,0.13321962,0.00021518,0.00257156,0.00008376,0.01936435,-0.0
 1792918,-0.00164375,0.11858059,-0.26420521,-0.01098126,-0.00168543,0.0
 0398510,0.00017909,-0.00072602,0.00232497,-0.00001901,-0.00145220,-0.0
 0000547,0.00011543,-0.00397303,-0.00356848,0.00014641,-0.00193935,-0.0
 0094443,0.00010419,-0.12947811,0.27818434,-0.00047689,0.00012003,-0.00
 382917,-0.00002833,0.00052969,0.00334864,0.00864722,-0.01096224,-0.032
 55813,0.00073355,-0.00189084,0.00160358,0.00086261,0.00001210,0.007243
 39,-0.00000450,0.00007212,-0.00095654,0.00036648,0.00010380,0.00573932
 ,0.00003515,-0.00006076,0.00060731,-0.00976783,0.01204469,0.02338076,-
 0.00133508,-0.00159802,0.00006372,-0.00490068,0.00157027,0.00090667,-0
 .00988921,-0.02823191,0.00047342,-0.12486664,-0.11841219,0.00419162,0.
 01222131,0.01481651,-0.00034065,-0.00079679,0.00349091,0.00060312,-0.0
 0093151,0.00074815,-0.00000483,0.00029514,-0.00018754,-0.00002301,0.00
 089624,0.00029857,-0.00034815,0.12824399,-0.00013286,0.00003200,0.0000
 0935,0.00104391,0.00199539,-0.00016248,0.00220776,0.00341719,-0.000149
 00,-0.11848328,-0.27406573,0.00419062,-0.01594426,-0.01700882,0.000783
 23,0.00395313,-0.00342098,-0.00043113,0.00097360,0.00033891,-0.0000449
 5,0.00004662,-0.00001308,-0.00000195,-0.00032780,0.00060021,0.00009667
 ,0.12731041,0.28834995,0.00008508,0.00010532,-0.00004734,0.00088909,-0
 .00016481,0.00786575,0.00088764,0.00190186,0.00307625,0.00420809,0.004
 20812,-0.03787912,-0.00077048,-0.00131172,0.00383712,0.00058823,-0.000
 40046,0.00724388,0.00001350,-0.00003161,-0.00121927,-0.00002092,0.0000
 1436,-0.00004327,-0.00035250,0.00003774,-0.00408850,-0.00510357,-0.004
 40884,0.02623320,0.00007960,-0.00003745,-0.00006679,0.00055926,-0.0000
 4805,-0.00007543,0.00077328,0.00297690,0.00047668,-0.01096192,-0.00321
 408,0.00083350,-0.34172022,-0.00292432,0.02059183,-0.01031662,0.002870
 16,0.00087397,0.00083522,-0.00292520,0.00037013,0.00008275,0.00007150,
 -0.00000862,-0.00064485,-0.00016158,0.00006953,0.00057166,0.00022899,-
 0.00031916,0.36074763,-0.00005866,0.00050396,0.00002589,0.00012819,-0.
 00190931,-0.00002871,0.00230061,-0.00424912,-0.00032407,0.02799841,0.0
 0501318,-0.00186294,-0.00310515,-0.05889152,-0.00012835,-0.02818844,0.
 00457776,0.00196307,-0.00221821,-0.00449433,-0.00001506,-0.00015768,-0
 .00005495,0.00000994,0.00141766,0.00005970,-0.00010462,-0.00053441,0.0
 0082039,0.00010580,0.00319000,0.05767834,-0.00006312,0.00001976,-0.000
 85981,-0.00007390,-0.00000794,-0.00051784,0.00046857,-0.00037310,0.007
 14483,0.00129203,0.00025066,0.00182570,0.02061576,-0.00013478,-0.03515
 157,0.00040143,-0.00014000,0.00181304,0.00038851,0.00002585,0.00689131
 ,-0.00001475,-0.00000175,-0.00007537,0.00008969,0.00000315,0.00040364,
 -0.00033689,0.00005940,-0.00417699,-0.02250079,0.00023804,0.02631392,-
 0.00089696,0.00167246,0.00007713,-0.00474985,-0.00157431,0.00089194,-0
 .00095409,-0.00080857,-0.00001898,-0.00055943,-0.00348112,0.00046452,0
 .01202535,-0.01419209,-0.00075079,-0.13036253,0.12126071,0.00828304,-0
 .01039899,0.02824428,0.00137822,-0.00043241,0.00002772,0.00001557,0.00
 005118,0.00007807,-0.00005740,0.00043395,-0.00078541,-0.00004266,0.000
 55505,0.00055921,-0.00030926,0.13435500,0.00023084,0.00002153,-0.00001
 788,-0.00134258,0.00185747,0.00000767,-0.00096787,0.00035403,0.0000877
 7,-0.00385490,-0.00359090,0.00012506,0.01645197,-0.01697725,-0.0014298
 6,0.12153414,-0.26881156,-0.01120391,-0.00231989,0.00420421,0.00019250
 ,-0.00009670,0.00007378,0.00001001,0.00010120,-0.00003861,0.00000406,0
 .00081035,-0.00102296,-0.00007357,-0.00022603,0.00081650,0.00007881,-0
 .13065429,0.28256778,0.00006227,-0.00011556,-0.00004144,0.00087911,-0.
 00001085,0.00844916,-0.00001357,0.00008078,-0.00109769,0.00044272,0.00
 007937,0.00698302,-0.00028056,0.00064207,0.00377050,0.00831827,-0.0111
 8038,-0.03954024,0.00088777,-0.00186408,0.00346153,0.00001314,0.000003
 36,-0.00022875,-0.00005735,0.00000601,-0.00083268,-0.00001934,0.000040
 98,0.00003991,-0.00031008,0.00003228,-0.00395779,-0.00955307,0.0121805
 3,0.02741217,0.00116791,-0.00094469,-0.00033239,0.01111970,0.01404710,
 -0.00019990,-0.00124650,0.00320026,0.00052026,-0.00087570,0.00079389,-
 0.00000102,-0.00523912,0.00136901,0.00091779,-0.00878310,-0.02756605,0
 .00032160,-0.12992316,-0.12469752,0.00472633,-0.00001014,-0.00018370,-
 0.00004460,0.00052784,0.00087898,-0.00003142,0.00005761,-0.00009081,-0
 .00006233,-0.00056086,-0.00133151,0.00004272,0.00093374,0.00033376,-0.
 00036932,0.13283177,-0.00064259,0.00180714,0.00012860,-0.01792043,-0.0
 1842310,0.00089584,0.00366438,-0.00334759,-0.00039072,0.00143275,0.000
 06131,-0.00008121,0.00086749,0.00214481,-0.00014933,0.00189231,0.00489
 885,-0.00008798,-0.12262751,-0.27240804,0.00426416,0.00004073,0.000282
 20,0.00000933,-0.00066981,-0.00103450,0.00003531,-0.00008109,-0.000022
 46,0.00001781,0.00019915,0.00012940,-0.00001812,-0.00034667,0.00054598
 ,0.00010547,0.13419128,0.28536600,-0.00031627,0.00013649,-0.00343601,-
 0.00069559,-0.00124088,0.00465670,0.00051754,-0.00034699,0.00567018,0.
 00002179,-0.00004484,-0.00108722,0.00090902,-0.00015195,0.00774479,0.0
 0073588,0.00190115,0.00192946,0.00478807,0.00437825,-0.03475434,-0.000
 04356,0.00002876,-0.00059409,-0.00005401,-0.00007645,-0.00006162,-0.00
 006212,0.00001810,-0.00084162,0.00006524,0.00008872,0.00034693,-0.0003
 7825,0.00003881,-0.00441770,-0.00548772,-0.00472916,0.02484452\\0.0000
 4936,0.00009544,-0.00001945,-0.00004920,-0.00010775,0.00000197,0.00017
 087,0.00011199,0.00000744,-0.00006294,-0.00000345,0.00001010,0.0000126
 7,-0.00012164,0.00000100,0.00009861,0.00004116,-0.00000669,-0.00016950
 ,0.00008812,0.00000886,-0.00001142,-0.00003052,0.00001137,-0.00004800,
 -0.00004994,0.00000105,-0.00001387,-0.00000495,0.00000218,-0.00001695,
 0.00002185,-0.00000328,-0.00001599,-0.00000901,-0.00000745,0.00005637,
 -0.00003129,-0.00000711\\\@


 CHRISTMAS IS ON TOP OF A STEEP HILL.
 THE CLOSER YOU GET, THE STEEPER THE HILL IS.
          -- LINUS, OF PEANUTS
 Job cpu time:       0 days  0 hours  7 minutes  4.6 seconds.
 File lengths (MBytes):  RWF=     39 Int=      0 D2E=      0 Chk=      3 Scr=      1
 Normal termination of Gaussian 09 at Fri Aug 14 19:57:28 2020.
