 Entering Gaussian System, Link 0=g09
 Initial command:
 /ihome/crc/build/g09/g09-D.01/TAR/g09/l1.exe "/scratch/slurm-4550705/Gau-11772.inp" -scrdir="/scratch/slurm-4550705/"
 Entering Link 1 = /ihome/crc/build/g09/g09-D.01/TAR/g09/l1.exe PID=     11773.
  
 Copyright (c) 1988,1990,1992,1993,1995,1998,2003,2009,2013,
            Gaussian, Inc.  All Rights Reserved.
  
 This is part of the Gaussian(R) 09 program.  It is based on
 the Gaussian(R) 03 system (copyright 2003, Gaussian, Inc.),
 the Gaussian(R) 98 system (copyright 1998, Gaussian, Inc.),
 the Gaussian(R) 94 system (copyright 1995, Gaussian, Inc.),
 the Gaussian 92(TM) system (copyright 1992, Gaussian, Inc.),
 the Gaussian 90(TM) system (copyright 1990, Gaussian, Inc.),
 the Gaussian 88(TM) system (copyright 1988, Gaussian, Inc.),
 the Gaussian 86(TM) system (copyright 1986, Carnegie Mellon
 University), and the Gaussian 82(TM) system (copyright 1983,
 Carnegie Mellon University). Gaussian is a federally registered
 trademark of Gaussian, Inc.
  
 This software contains proprietary and confidential information,
 including trade secrets, belonging to Gaussian, Inc.
  
 This software is provided under written license and may be
 used, copied, transmitted, or stored only in accord with that
 written license.
  
 The following legend is applicable only to US Government
 contracts under FAR:
  
                    RESTRICTED RIGHTS LEGEND
  
 Use, reproduction and disclosure by the US Government is
 subject to restrictions as set forth in subparagraphs (a)
 and (c) of the Commercial Computer Software - Restricted
 Rights clause in FAR 52.227-19.
  
 Gaussian, Inc.
 340 Quinnipiac St., Bldg. 40, Wallingford CT 06492
  
  
 ---------------------------------------------------------------
 Warning -- This program may not be used in any manner that
 competes with the business of Gaussian, Inc. or will provide
 assistance to any competitor of Gaussian, Inc.  The licensee
 of this program is prohibited from giving any competitor of
 Gaussian, Inc. access to this program.  By using this program,
 the user acknowledges that Gaussian, Inc. is engaged in the
 business of creating and licensing software in the field of
 computational chemistry and represents and warrants to the
 licensee that it is not a competitor of Gaussian, Inc. and that
 it will not use this program in any manner prohibited above.
 ---------------------------------------------------------------
  

 Cite this work as:
 Gaussian 09, Revision D.01,
 M. J. Frisch, G. W. Trucks, H. B. Schlegel, G. E. Scuseria, 
 M. A. Robb, J. R. Cheeseman, G. Scalmani, V. Barone, B. Mennucci, 
 G. A. Petersson, H. Nakatsuji, M. Caricato, X. Li, H. P. Hratchian, 
 A. F. Izmaylov, J. Bloino, G. Zheng, J. L. Sonnenberg, M. Hada, 
 M. Ehara, K. Toyota, R. Fukuda, J. Hasegawa, M. Ishida, T. Nakajima, 
 Y. Honda, O. Kitao, H. Nakai, T. Vreven, J. A. Montgomery, Jr., 
 J. E. Peralta, F. Ogliaro, M. Bearpark, J. J. Heyd, E. Brothers, 
 K. N. Kudin, V. N. Staroverov, T. Keith, R. Kobayashi, J. Normand, 
 K. Raghavachari, A. Rendell, J. C. Burant, S. S. Iyengar, J. Tomasi, 
 M. Cossi, N. Rega, J. M. Millam, M. Klene, J. E. Knox, J. B. Cross, 
 V. Bakken, C. Adamo, J. Jaramillo, R. Gomperts, R. E. Stratmann, 
 O. Yazyev, A. J. Austin, R. Cammi, C. Pomelli, J. W. Ochterski, 
 R. L. Martin, K. Morokuma, V. G. Zakrzewski, G. A. Voth, 
 P. Salvador, J. J. Dannenberg, S. Dapprich, A. D. Daniels, 
 O. Farkas, J. B. Foresman, J. V. Ortiz, J. Cioslowski, 
 and D. J. Fox, Gaussian, Inc., Wallingford CT, 2013.
 
 ******************************************
 Gaussian 09:  EM64L-G09RevD.01 24-Apr-2013
                14-Aug-2020 
 ******************************************
 %Nproc=2
 Will use up to    2 processors via shared memory.
 %mem=6GB
 ----------------------------------------------------------------------
 #m062x/6-311g(d,p) charge pop = nbo nosymm scf=(maxcycle=999) gfinput 
 iop(6/7=3) scrf=(cpcm,solvent=water)
 ----------------------------------------------------------------------
 1/18=10,28=-2,38=1,125=101/1;
 2/12=2,15=1,17=6,18=5,40=1/2;
 3/5=4,6=6,7=101,11=2,16=1,24=10,25=1,30=1,70=2101,72=1,74=-55/1,2,3;
 4//1;
 5/5=2,7=999,38=5,53=1/2;
 6/7=3,8=2,9=2,10=2,28=1,40=1/1,7;
 99/5=1,9=1/99;
 ---------
 Oc1ccccc1
 ---------
 Symbolic Z-matrix:
 Charge = -1 Multiplicity = 2
 O                     1.06301   0.03211   0.14781 
 C                     2.41833   0.11031   0.05553 
 C                     3.09922   1.32624   0.02699 
 C                     4.48745   1.3356   -0.06712 
 C                     5.20161   0.14378  -0.13281 
 C                     4.51163  -1.06641  -0.10428 
 C                     3.12623  -1.08954  -0.01046 
 H                     0.68906   0.9186    0.18323 
 H                     2.54385   2.25726   0.07735 
 H                     5.01025   2.28492  -0.08901 
 H                     6.2819    0.15667  -0.206 
 H                     5.05533  -2.00287  -0.15549 
 H                     2.57589  -2.0226    0.01254 
 
 Background charge distribution read from input stream:
                          Input orientation:                          
 ---------------------------------------------------------------------
 Center     Atomic      Atomic             Coordinates (Angstroms)
 Number     Number       Type             X           Y           Z
 ---------------------------------------------------------------------
      1          8           0        1.063008    0.032112    0.147809
      2          6           0        2.418329    0.110307    0.055526
      3          6           0        3.099219    1.326241    0.026994
      4          6           0        4.487454    1.335604   -0.067123
      5          6           0        5.201612    0.143775   -0.132811
      6          6           0        4.511633   -1.066409   -0.104275
      7          6           0        3.126230   -1.089545   -0.010458
      8          1           0        0.689062    0.918604    0.183229
      9          1           0        2.543845    2.257258    0.077353
     10          1           0        5.010249    2.284922   -0.089008
     11          1           0        6.281904    0.156668   -0.206001
     12          1           0        5.055326   -2.002869   -0.155491
     13          1           0        2.575888   -2.022598    0.012537
 ---------------------------------------------------------------------
                    Distance matrix (angstroms):
                    1          2          3          4          5
     1  O    0.000000
     2  C    1.360708   0.000000
     3  C    2.415682   1.393887   0.000000
     4  C    3.670438   2.407836   1.391453   0.000000
     5  C    4.149610   2.789849   2.417399   1.390968   0.000000
     6  C    3.628127   2.406682   2.781532   2.402422   1.393352
     7  C    2.353731   1.394676   2.416227   2.781634   2.417283
     8  H    0.962787   1.913117   2.449374   3.829406   4.589482
     9  H    2.673783   2.150728   1.085251   2.155907   3.402162
    10  H    4.551038   3.386427   2.141159   1.083973   2.150128
    11  H    5.232358   3.872694   3.398775   2.151564   1.082845
    12  H    4.491296   3.385823   3.865570   3.387579   2.151742
    13  H    2.555179   2.139149   3.389514   3.864965   3.407158
                    6          7          8          9         10
     6  C    0.000000
     7  C    1.388769   0.000000
     8  H    4.316826   3.163853   0.000000
     9  H    3.866774   3.398231   2.289852   0.000000
    10  H    3.388255   3.865582   4.540220   2.472163   0.000000
    11  H    2.154095   3.398465   5.657908   4.297191   2.481987
    12  H    1.084058   2.139301   5.264409   4.950801   4.288543
    13  H    2.162187   1.083510   3.498559   4.280467   4.948854
                   11         12         13
    11  H    0.000000
    12  H    2.484078   0.000000
    13  H    4.304824   2.485203   0.000000
 Symmetry turned off by external request.
 Stoichiometry    C6H6O(1-,2)
 Framework group  C1[X(C6H6O)]
 Deg. of freedom    33
 Full point group                 C1      NOp   1
 Rotational constants (GHZ):      5.6839729      2.6331053      1.7994904
 Standard basis: 6-311G(d,p) (5D, 7F)
 AO basis set in the form of general basis input (Overlap normalization):
      1 0
 S   6 1.00       0.000000000000
      0.8588500000D+04  0.1895150083D-02
      0.1297230000D+04  0.1438590063D-01
      0.2992960000D+03  0.7073200310D-01
      0.8737710000D+02  0.2400010105D+00
      0.2567890000D+02  0.5947970261D+00
      0.3740040000D+01  0.2808020123D+00
 SP   3 1.00       0.000000000000
      0.4211750000D+02  0.1138890124D+00  0.3651139738D-01
      0.9628370000D+01  0.9208111006D+00  0.2371529830D+00
      0.2853320000D+01 -0.3274470358D-02  0.8197019412D+00
 SP   1 1.00       0.000000000000
      0.9056610000D+00  0.1000000000D+01  0.1000000000D+01
 SP   1 1.00       0.000000000000
      0.2556110000D+00  0.1000000000D+01  0.1000000000D+01
 D   1 1.00       0.000000000000
      0.1292000000D+01  0.1000000000D+01
 ****
      2 0
 S   6 1.00       0.000000000000
      0.4563240000D+04  0.1966650249D-02
      0.6820240000D+03  0.1523060193D-01
      0.1549730000D+03  0.7612690966D-01
      0.4445530000D+02  0.2608010331D+00
      0.1302900000D+02  0.6164620782D+00
      0.1827730000D+01  0.2210060280D+00
 SP   3 1.00       0.000000000000
      0.2096420000D+02  0.1146600807D+00  0.4024869267D-01
      0.4803310000D+01  0.9199996477D+00  0.2375939567D+00
      0.1459330000D+01 -0.3030682134D-02  0.8158538515D+00
 SP   1 1.00       0.000000000000
      0.4834560000D+00  0.1000000000D+01  0.1000000000D+01
 SP   1 1.00       0.000000000000
      0.1455850000D+00  0.1000000000D+01  0.1000000000D+01
 D   1 1.00       0.000000000000
      0.6260000000D+00  0.1000000000D+01
 ****
      3 0
 S   6 1.00       0.000000000000
      0.4563240000D+04  0.1966650249D-02
      0.6820240000D+03  0.1523060193D-01
      0.1549730000D+03  0.7612690966D-01
      0.4445530000D+02  0.2608010331D+00
      0.1302900000D+02  0.6164620782D+00
      0.1827730000D+01  0.2210060280D+00
 SP   3 1.00       0.000000000000
      0.2096420000D+02  0.1146600807D+00  0.4024869267D-01
      0.4803310000D+01  0.9199996477D+00  0.2375939567D+00
      0.1459330000D+01 -0.3030682134D-02  0.8158538515D+00
 SP   1 1.00       0.000000000000
      0.4834560000D+00  0.1000000000D+01  0.1000000000D+01
 SP   1 1.00       0.000000000000
      0.1455850000D+00  0.1000000000D+01  0.1000000000D+01
 D   1 1.00       0.000000000000
      0.6260000000D+00  0.1000000000D+01
 ****
      4 0
 S   6 1.00       0.000000000000
      0.4563240000D+04  0.1966650249D-02
      0.6820240000D+03  0.1523060193D-01
      0.1549730000D+03  0.7612690966D-01
      0.4445530000D+02  0.2608010331D+00
      0.1302900000D+02  0.6164620782D+00
      0.1827730000D+01  0.2210060280D+00
 SP   3 1.00       0.000000000000
      0.2096420000D+02  0.1146600807D+00  0.4024869267D-01
      0.4803310000D+01  0.9199996477D+00  0.2375939567D+00
      0.1459330000D+01 -0.3030682134D-02  0.8158538515D+00
 SP   1 1.00       0.000000000000
      0.4834560000D+00  0.1000000000D+01  0.1000000000D+01
 SP   1 1.00       0.000000000000
      0.1455850000D+00  0.1000000000D+01  0.1000000000D+01
 D   1 1.00       0.000000000000
      0.6260000000D+00  0.1000000000D+01
 ****
      5 0
 S   6 1.00       0.000000000000
      0.4563240000D+04  0.1966650249D-02
      0.6820240000D+03  0.1523060193D-01
      0.1549730000D+03  0.7612690966D-01
      0.4445530000D+02  0.2608010331D+00
      0.1302900000D+02  0.6164620782D+00
      0.1827730000D+01  0.2210060280D+00
 SP   3 1.00       0.000000000000
      0.2096420000D+02  0.1146600807D+00  0.4024869267D-01
      0.4803310000D+01  0.9199996477D+00  0.2375939567D+00
      0.1459330000D+01 -0.3030682134D-02  0.8158538515D+00
 SP   1 1.00       0.000000000000
      0.4834560000D+00  0.1000000000D+01  0.1000000000D+01
 SP   1 1.00       0.000000000000
      0.1455850000D+00  0.1000000000D+01  0.1000000000D+01
 D   1 1.00       0.000000000000
      0.6260000000D+00  0.1000000000D+01
 ****
      6 0
 S   6 1.00       0.000000000000
      0.4563240000D+04  0.1966650249D-02
      0.6820240000D+03  0.1523060193D-01
      0.1549730000D+03  0.7612690966D-01
      0.4445530000D+02  0.2608010331D+00
      0.1302900000D+02  0.6164620782D+00
      0.1827730000D+01  0.2210060280D+00
 SP   3 1.00       0.000000000000
      0.2096420000D+02  0.1146600807D+00  0.4024869267D-01
      0.4803310000D+01  0.9199996477D+00  0.2375939567D+00
      0.1459330000D+01 -0.3030682134D-02  0.8158538515D+00
 SP   1 1.00       0.000000000000
      0.4834560000D+00  0.1000000000D+01  0.1000000000D+01
 SP   1 1.00       0.000000000000
      0.1455850000D+00  0.1000000000D+01  0.1000000000D+01
 D   1 1.00       0.000000000000
      0.6260000000D+00  0.1000000000D+01
 ****
      7 0
 S   6 1.00       0.000000000000
      0.4563240000D+04  0.1966650249D-02
      0.6820240000D+03  0.1523060193D-01
      0.1549730000D+03  0.7612690966D-01
      0.4445530000D+02  0.2608010331D+00
      0.1302900000D+02  0.6164620782D+00
      0.1827730000D+01  0.2210060280D+00
 SP   3 1.00       0.000000000000
      0.2096420000D+02  0.1146600807D+00  0.4024869267D-01
      0.4803310000D+01  0.9199996477D+00  0.2375939567D+00
      0.1459330000D+01 -0.3030682134D-02  0.8158538515D+00
 SP   1 1.00       0.000000000000
      0.4834560000D+00  0.1000000000D+01  0.1000000000D+01
 SP   1 1.00       0.000000000000
      0.1455850000D+00  0.1000000000D+01  0.1000000000D+01
 D   1 1.00       0.000000000000
      0.6260000000D+00  0.1000000000D+01
 ****
      8 0
 S   3 1.00       0.000000000000
      0.3386500000D+02  0.2549381454D-01
      0.5094790000D+01  0.1903731086D+00
      0.1158790000D+01  0.8521614860D+00
 S   1 1.00       0.000000000000
      0.3258400000D+00  0.1000000000D+01
 S   1 1.00       0.000000000000
      0.1027410000D+00  0.1000000000D+01
 P   1 1.00       0.000000000000
      0.7500000000D+00  0.1000000000D+01
 ****
      9 0
 S   3 1.00       0.000000000000
      0.3386500000D+02  0.2549381454D-01
      0.5094790000D+01  0.1903731086D+00
      0.1158790000D+01  0.8521614860D+00
 S   1 1.00       0.000000000000
      0.3258400000D+00  0.1000000000D+01
 S   1 1.00       0.000000000000
      0.1027410000D+00  0.1000000000D+01
 P   1 1.00       0.000000000000
      0.7500000000D+00  0.1000000000D+01
 ****
     10 0
 S   3 1.00       0.000000000000
      0.3386500000D+02  0.2549381454D-01
      0.5094790000D+01  0.1903731086D+00
      0.1158790000D+01  0.8521614860D+00
 S   1 1.00       0.000000000000
      0.3258400000D+00  0.1000000000D+01
 S   1 1.00       0.000000000000
      0.1027410000D+00  0.1000000000D+01
 P   1 1.00       0.000000000000
      0.7500000000D+00  0.1000000000D+01
 ****
     11 0
 S   3 1.00       0.000000000000
      0.3386500000D+02  0.2549381454D-01
      0.5094790000D+01  0.1903731086D+00
      0.1158790000D+01  0.8521614860D+00
 S   1 1.00       0.000000000000
      0.3258400000D+00  0.1000000000D+01
 S   1 1.00       0.000000000000
      0.1027410000D+00  0.1000000000D+01
 P   1 1.00       0.000000000000
      0.7500000000D+00  0.1000000000D+01
 ****
     12 0
 S   3 1.00       0.000000000000
      0.3386500000D+02  0.2549381454D-01
      0.5094790000D+01  0.1903731086D+00
      0.1158790000D+01  0.8521614860D+00
 S   1 1.00       0.000000000000
      0.3258400000D+00  0.1000000000D+01
 S   1 1.00       0.000000000000
      0.1027410000D+00  0.1000000000D+01
 P   1 1.00       0.000000000000
      0.7500000000D+00  0.1000000000D+01
 ****
     13 0
 S   3 1.00       0.000000000000
      0.3386500000D+02  0.2549381454D-01
      0.5094790000D+01  0.1903731086D+00
      0.1158790000D+01  0.8521614860D+00
 S   1 1.00       0.000000000000
      0.3258400000D+00  0.1000000000D+01
 S   1 1.00       0.000000000000
      0.1027410000D+00  0.1000000000D+01
 P   1 1.00       0.000000000000
      0.7500000000D+00  0.1000000000D+01
 ****

   162 basis functions,   272 primitive gaussians,   169 cartesian basis functions
    26 alpha electrons       25 beta electrons
       nuclear repulsion energy       271.7122047021 Hartrees.
 NAtoms=   13 NActive=   13 NUniq=   13 SFac= 1.00D+00 NAtFMM=   60 NAOKFM=F Big=F
 Integral buffers will be    131072 words long.
 Raffenetti 2 integral format.
 Two-electron integral symmetry is turned off.
 ------------------------------------------------------------------------------
 Polarizable Continuum Model (PCM)
 =================================
 Model                : C-PCM.
 Atomic radii         : UFF (Universal Force Field).
 Polarization charges : Total charges.
 Charge compensation  : None.
 Solution method      : On-the-fly selection.
 Cavity type          : Scaled VdW (van der Waals Surface) (Alpha=1.100).
 Cavity algorithm     : GePol (No added spheres)
                        Default sphere list used, NSphG=   13.
                        Lebedev-Laikov grids with approx.  5.0 points / Ang**2.
                        Smoothing algorithm: Karplus/York (Gamma=1.0000).
                        Polarization charges: spherical gaussians, with
                                              point-specific exponents (IZeta= 3).
                        Self-potential: point-specific (ISelfS= 7).
                        Self-field    : sphere-specific E.n sum rule (ISelfD= 2).
 Solvent              : Water, Eps=  78.355300 Eps(inf)=   1.777849
 ------------------------------------------------------------------------------
 Spheres list:
 ISph  on   Nord     Re0    Alpha      Xe            Ye            Ze
    1   O      1    1.7500  1.100      1.063008      0.032112      0.147809
    2   C      2    1.9255  1.100      2.418329      0.110307      0.055526
    3   C      3    1.9255  1.100      3.099219      1.326241      0.026994
    4   C      4    1.9255  1.100      4.487454      1.335604     -0.067123
    5   C      5    1.9255  1.100      5.201612      0.143775     -0.132811
    6   C      6    1.9255  1.100      4.511633     -1.066409     -0.104275
    7   C      7    1.9255  1.100      3.126230     -1.089545     -0.010458
    8   H      8    1.4430  1.100      0.689062      0.918604      0.183229
    9   H      9    1.4430  1.100      2.543845      2.257258      0.077353
   10   H     10    1.4430  1.100      5.010249      2.284922     -0.089008
   11   H     11    1.4430  1.100      6.281904      0.156668     -0.206001
   12   H     12    1.4430  1.100      5.055326     -2.002869     -0.155491
   13   H     13    1.4430  1.100      2.575888     -2.022598      0.012537
 ------------------------------------------------------------------------------
 One-electron integrals computed using PRISM.
 NBasis=   162 RedAO= T EigKep=  2.17D-04  NBF=   162
 NBsUse=   162 1.00D-06 EigRej= -1.00D+00 NBFU=   162
 ExpMin= 1.03D-01 ExpMax= 8.59D+03 ExpMxC= 1.30D+03 IAcc=1 IRadAn=         1 AccDes= 0.00D+00
 Harris functional with IExCor= 1009 and IRadAn=       1 diagonalized for initial guess.
 HarFok:  IExCor= 1009 AccDes= 0.00D+00 IRadAn=         1 IDoV= 1 UseB2=F ITyADJ=14
 ICtDFT=  3500011 ScaDFX=  1.000000  1.000000  1.000000  1.000000
 FoFCou: FMM=F IPFlag=           0 FMFlag=      100000 FMFlg1=           0
         NFxFlg=           0 DoJE=T BraDBF=F KetDBF=T FulRan=T
         wScrn=  0.000000 ICntrl=     500 IOpCl=  0 I1Cent=   200000004 NGrid=           0
         NMat0=    1 NMatS0=      1 NMatT0=    0 NMatD0=    1 NMtDS0=    0 NMtDT0=    0
 Symmetry not used in FoFCou.
 Initial guess <Sx>= 0.0000 <Sy>= 0.0000 <Sz>= 0.5000 <S**2>= 0.7500 S= 0.5000
 Keep R1 and R2 ints in memory in canonical form, NReq=179969061.
 Requested convergence on RMS density matrix=1.00D-08 within 999 cycles.
 Requested convergence on MAX density matrix=1.00D-06.
 Requested convergence on             energy=1.00D-06.
 No special actions if energy rises.
 Inv3:  Mode=1 IEnd=     4022892.
 Iteration    1 A*A^-1 deviation from unit magnitude is 5.77D-15 for    497.
 Iteration    1 A*A^-1 deviation from orthogonality  is 3.10D-15 for    807    147.
 Iteration    1 A^-1*A deviation from unit magnitude is 5.77D-15 for    497.
 Iteration    1 A^-1*A deviation from orthogonality  is 2.53D-15 for   1047    906.
 Error on total polarization charges =  0.01416
 SCF Done:  E(UM062X) =  -307.445158056     A.U. after   20 cycles
            NFock= 20  Conv=0.10D-08     -V/T= 2.0024
 <Sx>= 0.0000 <Sy>= 0.0000 <Sz>= 0.5000 <S**2>= 0.7584 S= 0.5042
 <L.S>= 0.000000000000E+00
 Annihilation of the first spin contaminant:
 S**2 before annihilation     0.7584,   after     0.7500

 **********************************************************************

            Population analysis using the SCF density.

 **********************************************************************

 Alpha  occ. eigenvalues --  -19.61673 -10.55706 -10.48912 -10.46769 -10.46675
 Alpha  occ. eigenvalues --  -10.46559 -10.46078  -1.15491  -0.90091  -0.79083
 Alpha  occ. eigenvalues --   -0.78435  -0.66476  -0.63841  -0.57617  -0.52948
 Alpha  occ. eigenvalues --   -0.49704  -0.46065  -0.45554  -0.43774  -0.42152
 Alpha  occ. eigenvalues --   -0.37388  -0.37376  -0.34893  -0.27482  -0.24959
 Alpha  occ. eigenvalues --   -0.06145
 Alpha virt. eigenvalues --    0.08594   0.09554   0.10710   0.13372   0.14947
 Alpha virt. eigenvalues --    0.17396   0.18991   0.23284   0.29746   0.32264
 Alpha virt. eigenvalues --    0.35011   0.36410   0.38354   0.42054   0.44754
 Alpha virt. eigenvalues --    0.45298   0.47459   0.48927   0.51089   0.51183
 Alpha virt. eigenvalues --    0.51561   0.51600   0.52947   0.53122   0.58971
 Alpha virt. eigenvalues --    0.59107   0.60254   0.64698   0.68185   0.68695
 Alpha virt. eigenvalues --    0.69189   0.70031   0.70335   0.75092   0.76612
 Alpha virt. eigenvalues --    0.79728   0.81215   0.85072   0.88526   0.90693
 Alpha virt. eigenvalues --    0.90701   0.92715   0.95283   0.96115   1.05462
 Alpha virt. eigenvalues --    1.06393   1.07455   1.10686   1.11666   1.18260
 Alpha virt. eigenvalues --    1.20330   1.23704   1.27790   1.29655   1.37198
 Alpha virt. eigenvalues --    1.47327   1.50048   1.53415   1.56174   1.57491
 Alpha virt. eigenvalues --    1.62009   1.63760   1.63928   1.67342   1.68270
 Alpha virt. eigenvalues --    1.68333   1.70946   1.76564   1.80841   1.82541
 Alpha virt. eigenvalues --    1.85117   1.85400   1.90213   1.97944   1.98298
 Alpha virt. eigenvalues --    1.98908   1.99670   2.00956   2.01327   2.04831
 Alpha virt. eigenvalues --    2.05235   2.09119   2.10745   2.15453   2.33616
 Alpha virt. eigenvalues --    2.34237   2.37702   2.40796   2.41289   2.44974
 Alpha virt. eigenvalues --    2.52314   2.54670   2.64528   2.66126   2.66516
 Alpha virt. eigenvalues --    2.67401   2.68202   2.69408   2.70121   2.73717
 Alpha virt. eigenvalues --    2.79623   2.82969   2.88108   2.89882   2.94242
 Alpha virt. eigenvalues --    2.96176   3.00105   3.13779   3.16299   3.18845
 Alpha virt. eigenvalues --    3.22793   3.27633   3.42787   3.46977   3.49850
 Alpha virt. eigenvalues --    3.57749   3.58939   3.65255   3.74410   3.93790
 Alpha virt. eigenvalues --    4.05286   4.07811   4.16158   4.19094   4.19853
 Alpha virt. eigenvalues --    4.90644   4.96315   5.46607   5.82901  23.63015
 Alpha virt. eigenvalues --   24.04841  24.10128  24.21003  24.25824  24.33713
 Alpha virt. eigenvalues --   50.05097
  Beta  occ. eigenvalues --  -19.61690 -10.55773 -10.48990 -10.46572 -10.46465
  Beta  occ. eigenvalues --  -10.46364 -10.45872  -1.15533  -0.89453  -0.78262
  Beta  occ. eigenvalues --   -0.77873  -0.65968  -0.63081  -0.57174  -0.52548
  Beta  occ. eigenvalues --   -0.49327  -0.45765  -0.45109  -0.43204  -0.41663
  Beta  occ. eigenvalues --   -0.36891  -0.36048  -0.34518  -0.24306  -0.23273
  Beta virt. eigenvalues --    0.08689   0.08730   0.09470   0.10603   0.13294
  Beta virt. eigenvalues --    0.14893   0.17260   0.18940   0.26098   0.29855
  Beta virt. eigenvalues --    0.32539   0.35415   0.36828   0.38509   0.42125
  Beta virt. eigenvalues --    0.45375   0.46017   0.47762   0.49383   0.51525
  Beta virt. eigenvalues --    0.51831   0.52083   0.52378   0.53300   0.53885
  Beta virt. eigenvalues --    0.59239   0.60336   0.60928   0.65097   0.68986
  Beta virt. eigenvalues --    0.69408   0.69628   0.70896   0.71413   0.75798
  Beta virt. eigenvalues --    0.77172   0.80339   0.81676   0.85560   0.89202
  Beta virt. eigenvalues --    0.90731   0.90782   0.93134   0.95702   0.96207
  Beta virt. eigenvalues --    1.05333   1.07035   1.08308   1.11847   1.12472
  Beta virt. eigenvalues --    1.19454   1.20983   1.24882   1.28454   1.30591
  Beta virt. eigenvalues --    1.37556   1.47522   1.50639   1.53934   1.56686
  Beta virt. eigenvalues --    1.57738   1.62246   1.64254   1.64648   1.67704
  Beta virt. eigenvalues --    1.68566   1.68961   1.71272   1.76900   1.81272
  Beta virt. eigenvalues --    1.82684   1.85672   1.85964   1.90407   1.98481
  Beta virt. eigenvalues --    1.98853   1.99218   2.00803   2.01627   2.02829
  Beta virt. eigenvalues --    2.05466   2.05722   2.09556   2.11108   2.16849
  Beta virt. eigenvalues --    2.33744   2.35156   2.38124   2.41232   2.42924
  Beta virt. eigenvalues --    2.45467   2.52557   2.55006   2.64896   2.66556
  Beta virt. eigenvalues --    2.67629   2.68079   2.68992   2.69625   2.70416
  Beta virt. eigenvalues --    2.74295   2.80343   2.85021   2.88715   2.90352
  Beta virt. eigenvalues --    2.94863   2.98474   3.01254   3.13835   3.17548
  Beta virt. eigenvalues --    3.19055   3.23101   3.27591   3.43019   3.47376
  Beta virt. eigenvalues --    3.49988   3.58142   3.59377   3.65947   3.74904
  Beta virt. eigenvalues --    3.93908   4.06335   4.08278   4.16740   4.20324
  Beta virt. eigenvalues --    4.20971   4.92459   4.96232   5.46639   5.82969
  Beta virt. eigenvalues --   23.63003  24.04875  24.10330  24.21087  24.26062
  Beta virt. eigenvalues --   24.33932  50.05107
     Alpha Molecular Orbital Coefficients:
                           1         2         3         4         5
                           O         O         O         O         O
     Eigenvalues --   -19.61673 -10.55706 -10.48912 -10.46769 -10.46675
   1 1   O  1S          0.55288  -0.00006   0.00000   0.00000   0.00000
   2        2S          0.46948  -0.00015   0.00001   0.00001   0.00002
   3        2PX         0.00070   0.00024   0.00002   0.00003   0.00003
   4        2PY         0.00121   0.00005  -0.00001  -0.00001   0.00001
   5        2PZ        -0.00003  -0.00002   0.00000   0.00000   0.00000
   6        3S          0.00898   0.00104  -0.00013  -0.00008  -0.00008
   7        3PX         0.00005   0.00012  -0.00007  -0.00013  -0.00014
   8        3PY        -0.00016  -0.00015   0.00002   0.00004  -0.00006
   9        3PZ        -0.00001  -0.00001   0.00001   0.00001   0.00001
  10        4S         -0.00633  -0.00365   0.00061  -0.00007  -0.00013
  11        4PX        -0.00164  -0.00140   0.00010   0.00020   0.00003
  12        4PY        -0.00007  -0.00006  -0.00005  -0.00027  -0.00005
  13        4PZ         0.00011   0.00010  -0.00001  -0.00002   0.00000
  14        5D 0       -0.00007   0.00024   0.00001   0.00002   0.00003
  15        5D+1       -0.00001   0.00004   0.00000   0.00000   0.00001
  16        5D-1        0.00001   0.00000   0.00000   0.00000   0.00000
  17        5D+2       -0.00005  -0.00018  -0.00003  -0.00003  -0.00004
  18        5D-2       -0.00010   0.00002  -0.00001   0.00001  -0.00003
  19 2   C  1S          0.00001   0.56411   0.00007  -0.00008  -0.00075
  20        2S         -0.00007   0.46381   0.00013   0.00000  -0.00051
  21        2PX        -0.00018  -0.00153   0.00002   0.00007   0.00014
  22        2PY        -0.00002  -0.00001   0.00000  -0.00014   0.00029
  23        2PZ         0.00001   0.00010   0.00000  -0.00001  -0.00001
  24        3S          0.00063   0.01227  -0.00055  -0.00027  -0.00036
  25        3PX         0.00010   0.00225  -0.00023  -0.00045  -0.00066
  26        3PY         0.00000   0.00004   0.00000   0.00081  -0.00131
  27        3PZ        -0.00001  -0.00015   0.00002   0.00004   0.00003
  28        4S         -0.00091  -0.00836   0.00403  -0.00415  -0.00273
  29        4PX        -0.00591  -0.00671   0.00249  -0.00146  -0.00080
  30        4PY        -0.00054  -0.00099   0.00018   0.00095  -0.00041
  31        4PZ         0.00040   0.00044  -0.00017   0.00011   0.00005
  32        5D 0       -0.00003  -0.00114  -0.00003   0.00007   0.00020
  33        5D+1        0.00000  -0.00010  -0.00001   0.00000  -0.00001
  34        5D-1        0.00001   0.00003   0.00000  -0.00003   0.00004
  35        5D+2       -0.00014  -0.00055   0.00008   0.00015   0.00031
  36        5D-2       -0.00011   0.00004   0.00000   0.00044  -0.00068
  37 3   C  1S          0.00000   0.00228  -0.00003  -0.00349   0.17791
  38        2S          0.00002   0.00201   0.00004  -0.00280   0.14633
  39        2PX        -0.00002  -0.00038   0.00015  -0.00001   0.00062
  40        2PY         0.00004  -0.00063  -0.00001  -0.00003   0.00009
  41        2PZ         0.00000   0.00002  -0.00001   0.00000  -0.00004
  42        3S         -0.00019  -0.00029  -0.00020  -0.00054   0.00384
  43        3PX         0.00012   0.00142  -0.00098  -0.00006  -0.00215
  44        3PY        -0.00015   0.00231   0.00018   0.00033  -0.00026
  45        3PZ        -0.00001  -0.00006   0.00007   0.00001   0.00014
  46        4S          0.00383   0.00581  -0.00468   0.00279   0.00306
  47        4PX         0.00217   0.00113  -0.00108   0.00153   0.00094
  48        4PY        -0.00202  -0.00371   0.00186  -0.00161  -0.00177
  49        4PZ        -0.00018  -0.00013   0.00010  -0.00013  -0.00009
  50        5D 0       -0.00004   0.00041   0.00003  -0.00002  -0.00009
  51        5D+1        0.00000  -0.00003   0.00003   0.00000   0.00007
  52        5D-1        0.00001   0.00006   0.00001   0.00001   0.00002
  53        5D+2       -0.00004   0.00084  -0.00045   0.00001  -0.00117
  54        5D-2       -0.00009  -0.00117  -0.00001  -0.00010   0.00001
  55 4   C  1S          0.00000  -0.00004   0.00959  -0.01217   0.53507
  56        2S          0.00001   0.00004   0.00800  -0.00994   0.43979
  57        2PX        -0.00003  -0.00014   0.00040   0.00006  -0.00026
  58        2PY        -0.00001   0.00000  -0.00058  -0.00011   0.00026
  59        2PZ         0.00000   0.00001  -0.00004  -0.00001   0.00002
  60        3S         -0.00005  -0.00029  -0.00007  -0.00048   0.01231
  61        3PX         0.00019   0.00099  -0.00139  -0.00035   0.00075
  62        3PY         0.00006   0.00012   0.00198   0.00085  -0.00043
  63        3PZ        -0.00001  -0.00007   0.00012   0.00004  -0.00006
  64        4S         -0.00275  -0.00354   0.00612  -0.00434  -0.00676
  65        4PX         0.00082   0.00057  -0.00167   0.00097   0.00205
  66        4PY         0.00044   0.00142  -0.00370   0.00150   0.00415
  67        4PZ        -0.00005  -0.00002   0.00006  -0.00004  -0.00008
  68        5D 0       -0.00001   0.00001   0.00039   0.00004  -0.00124
  69        5D+1        0.00000   0.00003   0.00001   0.00000  -0.00012
  70        5D-1        0.00000   0.00001  -0.00009  -0.00003   0.00004
  71        5D+2       -0.00003  -0.00047   0.00070   0.00019  -0.00046
  72        5D-2       -0.00003   0.00000   0.00109   0.00036  -0.00010
  73 5   C  1S          0.00000  -0.00008   0.56391  -0.00991  -0.00945
  74        2S          0.00002   0.00000   0.46359  -0.00802  -0.00763
  75        2PX        -0.00001  -0.00003   0.00033  -0.00030  -0.00034
  76        2PY        -0.00001   0.00000   0.00000  -0.00064   0.00061
  77        2PZ         0.00000   0.00000  -0.00002   0.00001   0.00003
  78        3S         -0.00014  -0.00050   0.01303  -0.00053  -0.00059
  79        3PX         0.00007   0.00036  -0.00041   0.00103   0.00126
  80        3PY         0.00004   0.00001   0.00003   0.00226  -0.00227
  81        3PZ         0.00000  -0.00002   0.00003  -0.00004  -0.00012
  82        4S          0.00112   0.00279  -0.00955   0.00560   0.00439
  83        4PX        -0.00075  -0.00200   0.00627  -0.00386  -0.00329
  84        4PY        -0.00009   0.00017   0.00003  -0.00037   0.00019
  85        4PZ         0.00005   0.00014  -0.00042   0.00026   0.00023
  86        5D 0       -0.00002  -0.00003  -0.00131   0.00045   0.00046
  87        5D+1        0.00000  -0.00001  -0.00016   0.00000   0.00003
  88        5D-1        0.00000   0.00000   0.00003   0.00006  -0.00010
  89        5D+2        0.00003   0.00010   0.00007   0.00059   0.00060
  90        5D-2       -0.00001   0.00000  -0.00001  -0.00118   0.00121
  91 6   C  1S          0.00000  -0.00004   0.00999   0.56317   0.01249
  92        2S          0.00002   0.00004   0.00833   0.46285   0.01034
  93        2PX        -0.00004  -0.00013   0.00038  -0.00004   0.00005
  94        2PY         0.00000   0.00000   0.00058  -0.00027   0.00010
  95        2PZ         0.00000   0.00001  -0.00002   0.00000   0.00000
  96        3S         -0.00010  -0.00031  -0.00004   0.01305  -0.00002
  97        3PX         0.00023   0.00098  -0.00134   0.00002  -0.00026
  98        3PY        -0.00003  -0.00011  -0.00196   0.00041  -0.00086
  99        3PZ        -0.00002  -0.00007   0.00006   0.00000   0.00000
 100        4S         -0.00239  -0.00362   0.00624  -0.00851  -0.00357
 101        4PX         0.00049   0.00089  -0.00186   0.00278   0.00072
 102        4PY        -0.00030  -0.00091   0.00360  -0.00519  -0.00114
 103        4PZ        -0.00004  -0.00007   0.00018  -0.00027  -0.00007
 104        5D 0       -0.00002   0.00001   0.00039  -0.00142  -0.00003
 105        5D+1        0.00000   0.00003  -0.00002  -0.00016  -0.00002
 106        5D-1        0.00000   0.00001   0.00005   0.00003   0.00002
 107        5D+2       -0.00006  -0.00046   0.00074  -0.00010   0.00018
 108        5D-2        0.00003  -0.00001  -0.00104   0.00007  -0.00036
 109 7   C  1S          0.00000   0.00215  -0.00003   0.02872  -0.00004
 110        2S          0.00002   0.00190   0.00004   0.02373   0.00005
 111        2PX        -0.00002  -0.00039   0.00014   0.00070   0.00001
 112        2PY        -0.00003   0.00060   0.00002  -0.00004   0.00006
 113        2PZ         0.00000   0.00004  -0.00001  -0.00005   0.00000
 114        3S         -0.00018  -0.00025  -0.00019   0.00037  -0.00052
 115        3PX         0.00018   0.00146  -0.00098  -0.00239  -0.00007
 116        3PY         0.00008  -0.00219  -0.00021   0.00016  -0.00052
 117        3PZ        -0.00001  -0.00013   0.00006   0.00016   0.00000
 118        4S          0.00276   0.00482  -0.00463   0.00564   0.00219
 119        4PX         0.00197   0.00183  -0.00125   0.00156   0.00117
 120        4PY         0.00169   0.00285  -0.00177   0.00320   0.00149
 121        4PZ        -0.00011  -0.00008   0.00006  -0.00006  -0.00006
 122        5D 0       -0.00003   0.00041   0.00004   0.00033  -0.00001
 123        5D+1        0.00000   0.00001   0.00003   0.00012   0.00000
 124        5D-1       -0.00001  -0.00010   0.00001   0.00002  -0.00001
 125        5D+2        0.00003   0.00077  -0.00045  -0.00124   0.00000
 126        5D-2        0.00011   0.00121  -0.00001  -0.00009   0.00019
 127 8   H  1S          0.00007   0.00000  -0.00001  -0.00002  -0.00004
 128        2S          0.00014   0.00041   0.00002   0.00017   0.00018
 129        3S         -0.00024  -0.00059   0.00014  -0.00001  -0.00003
 130        4PX        -0.00003   0.00021   0.00002   0.00000   0.00007
 131        4PY         0.00036  -0.00014   0.00003  -0.00003  -0.00002
 132        4PZ         0.00001  -0.00002   0.00000   0.00000  -0.00001
 133 9   H  1S         -0.00010  -0.00017  -0.00005  -0.00009  -0.00002
 134        2S          0.00066  -0.00020  -0.00040   0.00032  -0.00115
 135        3S          0.00045   0.00117  -0.00019   0.00047   0.00095
 136        4PX         0.00000  -0.00012  -0.00010  -0.00004  -0.00049
 137        4PY        -0.00003   0.00041   0.00012   0.00004   0.00073
 138        4PZ         0.00000   0.00001   0.00001   0.00000   0.00004
 139 10  H  1S         -0.00002  -0.00007  -0.00016  -0.00006   0.00039
 140        2S          0.00004  -0.00027   0.00000  -0.00022  -0.00366
 141        3S         -0.00003  -0.00009   0.00102  -0.00015   0.00018
 142        4PX        -0.00001   0.00009   0.00011   0.00003   0.00087
 143        4PY         0.00000   0.00012   0.00036   0.00009   0.00153
 144        4PZ         0.00000   0.00000   0.00000   0.00000  -0.00004
 145 11  H  1S         -0.00003  -0.00009   0.00048  -0.00018  -0.00019
 146        2S          0.00009   0.00025  -0.00382   0.00012   0.00000
 147        3S          0.00014   0.00047  -0.00016   0.00097   0.00092
 148        4PX         0.00002   0.00008   0.00174   0.00030   0.00035
 149        4PY         0.00000  -0.00001   0.00002   0.00007  -0.00006
 150        4PZ         0.00000  -0.00001  -0.00012  -0.00002  -0.00002
 151 12  H  1S         -0.00002  -0.00008  -0.00016   0.00047  -0.00007
 152        2S          0.00007  -0.00020   0.00001  -0.00385  -0.00030
 153        3S          0.00003   0.00002   0.00101  -0.00008  -0.00002
 154        4PX         0.00001   0.00008   0.00012   0.00089   0.00008
 155        4PY         0.00000  -0.00012  -0.00035  -0.00151  -0.00017
 156        4PZ         0.00000  -0.00001  -0.00001  -0.00008  -0.00001
 157 13  H  1S         -0.00009  -0.00018  -0.00004  -0.00014  -0.00011
 158        2S          0.00058  -0.00015  -0.00043  -0.00017   0.00020
 159        3S          0.00037   0.00085  -0.00012   0.00095   0.00051
 160        4PX         0.00004  -0.00014  -0.00010  -0.00027  -0.00007
 161        4PY         0.00001  -0.00040  -0.00012  -0.00034  -0.00009
 162        4PZ         0.00000   0.00000   0.00000   0.00001   0.00000
                           6         7         8         9        10
                           O         O         O         O         O
     Eigenvalues --   -10.46559 -10.46078  -1.15491  -0.90091  -0.79083
   1 1   O  1S          0.00000   0.00000  -0.10952   0.01943   0.00505
   2        2S          0.00001   0.00002  -0.18010   0.03228   0.00840
   3        2PX         0.00001   0.00003   0.02904   0.01914   0.02522
   4        2PY         0.00000   0.00001   0.03359  -0.01235  -0.02786
   5        2PZ         0.00000   0.00000  -0.00163  -0.00145  -0.00209
   6        3S         -0.00002  -0.00006   0.51376  -0.09511  -0.02452
   7        3PX        -0.00007  -0.00016   0.04654   0.02611   0.03702
   8        3PY        -0.00002  -0.00003   0.05552  -0.01923  -0.04211
   9        3PZ         0.00000   0.00001  -0.00258  -0.00200  -0.00309
  10        4S          0.00001   0.00015   0.39368  -0.07632  -0.01999
  11        4PX        -0.00029  -0.00020   0.03093   0.01664   0.02112
  12        4PY        -0.00032   0.00010   0.01846  -0.00752  -0.02236
  13        4PZ         0.00001   0.00002  -0.00192  -0.00123  -0.00174
  14        5D 0        0.00006   0.00005  -0.01005   0.00096   0.00050
  15        5D+1        0.00001   0.00001  -0.00139  -0.00001  -0.00024
  16        5D-1        0.00000   0.00000   0.00031  -0.00015   0.00001
  17        5D+2       -0.00007  -0.00010   0.00234   0.00205   0.00408
  18        5D-2       -0.00004   0.00000  -0.00210   0.00163  -0.00099
  19 2   C  1S         -0.00230  -0.00230  -0.04220  -0.04357  -0.02119
  20        2S         -0.00178  -0.00176  -0.06672  -0.06968  -0.03419
  21        2PX         0.00025   0.00030  -0.04893   0.04116   0.00465
  22        2PY         0.00057  -0.00062  -0.00028  -0.00062  -0.06087
  23        2PZ        -0.00001  -0.00003   0.00336  -0.00282  -0.00120
  24        3S         -0.00033  -0.00041   0.16632   0.18349   0.09196
  25        3PX        -0.00064  -0.00084  -0.08180   0.05410   0.00222
  26        3PY        -0.00187   0.00211  -0.00005  -0.00113  -0.08599
  27        3PZ         0.00002   0.00009   0.00563  -0.00369  -0.00139
  28        4S          0.00673   0.00597   0.05379   0.08332   0.05363
  29        4PX         0.00311   0.00324   0.04856   0.02445   0.01226
  30        4PY         0.00123  -0.00084   0.01320   0.00441  -0.02946
  31        4PZ        -0.00019  -0.00023  -0.00315  -0.00161  -0.00128
  32        5D 0        0.00043   0.00046  -0.01204  -0.00697  -0.00294
  33        5D+1        0.00001   0.00004  -0.00284  -0.00065  -0.00041
  34        5D-1        0.00005  -0.00009   0.00003   0.00015   0.00038
  35        5D+2        0.00044   0.00047   0.02016  -0.00241  -0.00024
  36        5D-2       -0.00094   0.00107  -0.00034   0.00095  -0.00446
  37 3   C  1S          0.53531   0.00160  -0.00816  -0.04855   0.04887
  38        2S          0.43992   0.00137  -0.01306  -0.07769   0.07870
  39        2PX        -0.00035  -0.00005  -0.00688   0.01637  -0.02974
  40        2PY         0.00013  -0.00011  -0.00646  -0.02322  -0.01104
  41        2PZ         0.00002   0.00000   0.00037  -0.00146   0.00187
  42        3S          0.01250  -0.00016   0.03422   0.19603  -0.20020
  43        3PX         0.00093   0.00031  -0.01150   0.02346  -0.04289
  44        3PY        -0.00021   0.00085  -0.01160  -0.03331  -0.01453
  45        3PZ        -0.00007  -0.00001   0.00062  -0.00209   0.00271
  46        4S         -0.00989  -0.00372  -0.02418   0.08187  -0.11573
  47        4PX        -0.00284  -0.00110  -0.01681  -0.00088  -0.01030
  48        4PY         0.00574   0.00149   0.01623   0.00006  -0.00152
  49        4PZ         0.00027   0.00010   0.00139   0.00005   0.00070
  50        5D 0       -0.00151   0.00000  -0.00159  -0.01009   0.00816
  51        5D+1       -0.00020  -0.00002  -0.00014  -0.00115   0.00140
  52        5D-1        0.00003   0.00002  -0.00029   0.00031  -0.00014
  53        5D+2        0.00037   0.00022   0.00027  -0.00077  -0.00629
  54        5D-2       -0.00005  -0.00035   0.00476  -0.00075   0.00041
  55 4   C  1S         -0.17805   0.00017  -0.00134  -0.05081   0.06465
  56        2S         -0.14621   0.00020  -0.00218  -0.08133   0.10406
  57        2PX        -0.00065  -0.00002  -0.00099  -0.01306   0.01471
  58        2PY        -0.00005  -0.00001  -0.00055  -0.02429   0.00283
  59        2PZ         0.00004   0.00000   0.00006   0.00053  -0.00096
  60        3S         -0.00441  -0.00046   0.00631   0.20516  -0.26495
  61        3PX         0.00232   0.00018  -0.00370  -0.01924   0.02201
  62        3PY        -0.00001   0.00020  -0.00146  -0.03554   0.00452
  63        3PZ        -0.00016  -0.00001   0.00023   0.00079  -0.00143
  64        4S          0.00770   0.00379   0.02018   0.10784  -0.15666
  65        4PX        -0.00249  -0.00120  -0.00380  -0.00556   0.00599
  66        4PY        -0.00487  -0.00213   0.00033  -0.01115   0.00220
  67        4PZ         0.00010   0.00005   0.00026   0.00023  -0.00039
  68        5D 0        0.00085  -0.00003  -0.00022  -0.01041   0.01057
  69        5D+1        0.00018   0.00000  -0.00004  -0.00122   0.00154
  70        5D-1        0.00000   0.00000  -0.00007   0.00030  -0.00038
  71        5D+2       -0.00119  -0.00007   0.00044  -0.00024  -0.00372
  72        5D-2       -0.00008   0.00006   0.00102  -0.00054   0.00252
  73 5   C  1S          0.00309   0.00053  -0.00072  -0.05144   0.02067
  74        2S          0.00256   0.00048  -0.00124  -0.08184   0.03306
  75        2PX         0.00003  -0.00006  -0.00064  -0.02766   0.00340
  76        2PY        -0.00009  -0.00008   0.00000  -0.00012  -0.04447
  77        2PZ         0.00000   0.00000   0.00004   0.00186  -0.00088
  78        3S          0.00000  -0.00014   0.00407   0.20815  -0.08470
  79        3PX         0.00023   0.00055  -0.00209  -0.03786   0.00401
  80        3PY         0.00001   0.00063  -0.00004  -0.00034  -0.06266
  81        3PZ        -0.00001  -0.00003   0.00014   0.00254  -0.00119
  82        4S         -0.00594  -0.00485  -0.00008   0.08583  -0.04755
  83        4PX         0.00310   0.00230   0.00386  -0.00368   0.00148
  84        4PY        -0.00030   0.00018  -0.00171   0.00017  -0.01701
  85        4PZ        -0.00021  -0.00015  -0.00029   0.00024  -0.00035
  86        5D 0       -0.00012   0.00001  -0.00010  -0.00844   0.00254
  87        5D+1       -0.00002  -0.00002   0.00002  -0.00104   0.00038
  88        5D-1        0.00000   0.00002   0.00001   0.00020  -0.00066
  89        5D+2        0.00001   0.00019  -0.00047   0.00082   0.00067
  90        5D-2       -0.00002  -0.00031  -0.00003   0.00007   0.00860
  91 6   C  1S         -0.00041  -0.02885  -0.00131  -0.05065  -0.04380
  92        2S         -0.00029  -0.02358  -0.00213  -0.08106  -0.07048
  93        2PX        -0.00003  -0.00070  -0.00100  -0.01366  -0.03481
  94        2PY        -0.00002  -0.00004   0.00051   0.02389  -0.01261
  95        2PZ         0.00000   0.00005   0.00008   0.00129   0.00218
  96        3S         -0.00041  -0.00100   0.00627   0.20470   0.18005
  97        3PX         0.00026   0.00246  -0.00336  -0.02010  -0.05104
  98        3PY         0.00004   0.00019   0.00150   0.03490  -0.01817
  99        3PZ        -0.00002  -0.00016   0.00025   0.00189   0.00320
 100        4S          0.00461   0.00622   0.02027   0.10543   0.10104
 101        4PX        -0.00150  -0.00224  -0.00624  -0.00435  -0.01156
 102        4PY         0.00228   0.00365  -0.00494   0.01042  -0.00232
 103        4PZ         0.00014   0.00021   0.00035   0.00046   0.00076
 104        5D 0       -0.00003   0.00048  -0.00021  -0.01028  -0.00674
 105        5D+1        0.00000   0.00015  -0.00006  -0.00119  -0.00133
 106        5D-1        0.00000   0.00000   0.00007   0.00023   0.00013
 107        5D+2       -0.00011  -0.00129   0.00035  -0.00019   0.00755
 108        5D-2        0.00004   0.00006  -0.00103   0.00055  -0.00096
 109 7   C  1S         -0.00150   0.56338  -0.00774  -0.04872  -0.06812
 110        2S         -0.00120   0.46301  -0.01236  -0.07798  -0.10976
 111        2PX        -0.00006  -0.00014  -0.00654   0.01529   0.00933
 112        2PY         0.00010  -0.00011   0.00622   0.02387   0.00650
 113        2PZ         0.00001   0.00001   0.00054  -0.00069  -0.00054
 114        3S         -0.00010   0.01315   0.03226   0.19646   0.27947
 115        3PX         0.00037   0.00033  -0.01101   0.02155   0.01320
 116        3PY        -0.00073   0.00022   0.01078   0.03486   0.01148
 117        3PZ        -0.00004  -0.00002   0.00092  -0.00095  -0.00073
 118        4S         -0.00413  -0.00922  -0.01053   0.08988   0.15683
 119        4PX        -0.00140  -0.00287  -0.02394  -0.00129   0.00451
 120        4PY        -0.00167  -0.00525  -0.00764   0.00231  -0.00311
 121        4PZ         0.00007   0.00012   0.00153   0.00012  -0.00036
 122        5D 0        0.00002  -0.00148  -0.00146  -0.01022  -0.01147
 123        5D+1       -0.00001  -0.00018  -0.00029  -0.00113  -0.00156
 124        5D-1       -0.00003   0.00003   0.00035   0.00024   0.00049
 125        5D+2        0.00021   0.00010   0.00072  -0.00103   0.00220
 126        5D-2        0.00033   0.00009  -0.00475   0.00061  -0.00327
 127 8   H  1S          0.00000  -0.00003   0.08644  -0.02708  -0.02865
 128        2S          0.00018   0.00014   0.06465  -0.02610  -0.03073
 129        3S         -0.00002   0.00014   0.00531  -0.00248  -0.00427
 130        4PX         0.00006   0.00010   0.01102  -0.00171  -0.00227
 131        4PY        -0.00005   0.00002  -0.01858   0.00605   0.00464
 132        4PZ         0.00000  -0.00001  -0.00097   0.00019   0.00020
 133 9   H  1S          0.00048  -0.00005   0.00466   0.02042  -0.03617
 134        2S         -0.00362  -0.00038   0.00165   0.01874  -0.04083
 135        3S         -0.00018  -0.00013  -0.00479  -0.00355  -0.00488
 136        4PX        -0.00080  -0.00006   0.00030   0.00169  -0.00408
 137        4PY         0.00136   0.00013  -0.00179  -0.00233   0.00461
 138        4PZ         0.00007   0.00001  -0.00005  -0.00015   0.00034
 139 10  H  1S         -0.00031  -0.00009   0.00039   0.02233  -0.04610
 140        2S          0.00130   0.00031  -0.00124   0.02261  -0.05000
 141        3S          0.00094   0.00051  -0.00134   0.00003  -0.00517
 142        4PX        -0.00008   0.00003  -0.00001  -0.00172   0.00421
 143        4PY        -0.00022   0.00006   0.00011  -0.00311   0.00635
 144        4PZ         0.00000   0.00000   0.00000   0.00007  -0.00019
 145 11  H  1S          0.00001  -0.00004   0.00034   0.02329  -0.01516
 146        2S         -0.00037  -0.00039  -0.00051   0.02382  -0.01710
 147        3S         -0.00047  -0.00024  -0.00123  -0.00160  -0.00173
 148        4PX         0.00004   0.00013  -0.00030  -0.00361   0.00254
 149        4PY         0.00001   0.00001   0.00004  -0.00004  -0.00197
 150        4PZ         0.00000  -0.00001   0.00002   0.00024  -0.00020
 151 12  H  1S         -0.00007  -0.00020   0.00040   0.02227   0.03115
 152        2S          0.00037   0.00029  -0.00194   0.02252   0.03493
 153        3S          0.00050   0.00099  -0.00217  -0.00022   0.00345
 154        4PX         0.00001   0.00017   0.00008  -0.00185  -0.00424
 155        4PY        -0.00001  -0.00019  -0.00013   0.00307   0.00370
 156        4PZ         0.00000  -0.00001  -0.00001   0.00017   0.00034
 157 13  H  1S         -0.00003   0.00046   0.00432   0.02053   0.04870
 158        2S         -0.00039  -0.00390   0.00087   0.01856   0.05192
 159        3S         -0.00017   0.00002  -0.00228  -0.00328   0.00373
 160        4PX        -0.00004  -0.00088   0.00054   0.00156   0.00403
 161        4PY        -0.00010  -0.00154   0.00167   0.00239   0.00685
 162        4PZ         0.00000   0.00004  -0.00001  -0.00007  -0.00017
                          11        12        13        14        15
                           O         O         O         O         O
     Eigenvalues --    -0.78435  -0.66476  -0.63841  -0.57617  -0.52948
   1 1   O  1S         -0.02312   0.00090  -0.01452   0.00685   0.01927
   2        2S         -0.03850   0.00160  -0.02422   0.01164   0.03229
   3        2PX        -0.05514  -0.09719  -0.08776  -0.10377  -0.01480
   4        2PY         0.02125   0.09132   0.00015   0.08144   0.09425
   5        2PZ         0.00400   0.00777   0.00589   0.00796   0.00191
   6        3S          0.11427  -0.00626   0.07239  -0.03752  -0.09810
   7        3PX        -0.07965  -0.14421  -0.12893  -0.15507  -0.02267
   8        3PY         0.03258   0.13470   0.00062   0.11912   0.13626
   9        3PZ         0.00580   0.01153   0.00866   0.01187   0.00284
  10        4S          0.10121  -0.01571   0.07274  -0.03942  -0.12754
  11        4PX        -0.05035  -0.08859  -0.09137  -0.10089   0.00011
  12        4PY         0.01535   0.08469  -0.00453   0.08601   0.10276
  13        4PZ         0.00362   0.00711   0.00609   0.00779   0.00090
  14        5D 0       -0.00024  -0.00102   0.00149  -0.00067  -0.00343
  15        5D+1        0.00031   0.00080   0.00052   0.00071   0.00004
  16        5D-1        0.00038   0.00028   0.00067   0.00051  -0.00002
  17        5D+2       -0.00577  -0.01348  -0.00663  -0.01231  -0.00641
  18        5D-2       -0.00463  -0.00151  -0.00922  -0.00533   0.00230
  19 2   C  1S          0.06108   0.02497   0.03747  -0.01745  -0.00511
  20        2S          0.09846   0.04098   0.06133  -0.02840  -0.00820
  21        2PX        -0.02533   0.04943   0.02867   0.10582   0.00653
  22        2PY        -0.01513   0.07988  -0.06865   0.00201   0.02555
  23        2PZ         0.00149  -0.00228  -0.00302  -0.00732  -0.00031
  24        3S         -0.26398  -0.11387  -0.16903   0.07686   0.02280
  25        3PX        -0.02474   0.08217   0.05353   0.15876   0.00722
  26        3PY        -0.02106   0.11110  -0.09570   0.00245   0.03426
  27        3PZ         0.00134  -0.00412  -0.00514  -0.01100  -0.00035
  28        4S         -0.13733  -0.09140  -0.11552   0.04788   0.00439
  29        4PX        -0.02938   0.00135  -0.00968   0.06426   0.01818
  30        4PY        -0.02059   0.04104  -0.06263  -0.00802   0.04073
  31        4PZ         0.00173   0.00049  -0.00027  -0.00460  -0.00090
  32        5D 0        0.00803   0.00506   0.00584   0.00073   0.00153
  33        5D+1        0.00060   0.00110   0.00099   0.00083   0.00134
  34        5D-1        0.00005   0.00075   0.00008   0.00102   0.00126
  35        5D+2        0.00422  -0.00911  -0.00450  -0.01267  -0.01937
  36        5D-2       -0.00458  -0.01083  -0.00229  -0.01241  -0.01486
  37 3   C  1S          0.05246  -0.04466   0.01069   0.01697  -0.00426
  38        2S          0.08456  -0.07282   0.01760   0.02760  -0.00695
  39        2PX         0.02079  -0.02109   0.07745  -0.01270  -0.08368
  40        2PY         0.02394   0.00663   0.03694  -0.08580   0.02698
  41        2PZ        -0.00105   0.00149  -0.00473  -0.00039   0.00597
  42        3S         -0.21564   0.18671  -0.04612  -0.07153   0.01746
  43        3PX         0.02929  -0.02785   0.10877  -0.01829  -0.11818
  44        3PY         0.03507   0.00763   0.05373  -0.12327   0.03638
  45        3PZ        -0.00147   0.00195  -0.00662  -0.00057   0.00840
  46        4S         -0.11270   0.15196  -0.01195  -0.06798  -0.00406
  47        4PX         0.01355  -0.02039   0.04804  -0.01232  -0.09053
  48        4PY         0.00050  -0.00494   0.00883  -0.05623   0.03624
  49        4PZ        -0.00091   0.00126  -0.00313   0.00001   0.00656
  50        5D 0        0.00902  -0.00780   0.00198   0.00048  -0.00014
  51        5D+1        0.00064  -0.00067  -0.00026   0.00072   0.00063
  52        5D-1        0.00008   0.00017   0.00023   0.00044   0.00002
  53        5D+2        0.00503  -0.00331   0.00599  -0.01060  -0.00882
  54        5D-2       -0.00554   0.00111  -0.00532  -0.00402   0.00171
  55 4   C  1S         -0.01183   0.02703  -0.05029   0.01354   0.01256
  56        2S         -0.01909   0.04401  -0.08198   0.02191   0.02067
  57        2PX         0.04351  -0.05803  -0.00992   0.02291   0.07204
  58        2PY        -0.02539   0.01782   0.03426  -0.07380   0.02952
  59        2PZ        -0.00332   0.00419   0.00117  -0.00263  -0.00449
  60        3S          0.04844  -0.11352   0.21236  -0.05697  -0.05663
  61        3PX         0.06261  -0.08175  -0.01412   0.03129   0.10103
  62        3PY        -0.03698   0.02584   0.04940  -0.10496   0.04260
  63        3PZ        -0.00479   0.00591   0.00168  -0.00365  -0.00629
  64        4S          0.02720  -0.08788   0.15303  -0.04823  -0.00435
  65        4PX         0.02063  -0.03576  -0.00205   0.00816   0.03621
  66        4PY        -0.00790   0.01064   0.02247  -0.05604   0.02009
  67        4PZ        -0.00151   0.00258   0.00046  -0.00136  -0.00216
  68        5D 0       -0.00220   0.00382  -0.00705   0.00026   0.00198
  69        5D+1        0.00020   0.00023  -0.00097   0.00021  -0.00023
  70        5D-1        0.00056  -0.00044   0.00017  -0.00005   0.00043
  71        5D+2       -0.00800   0.00422   0.00195  -0.00237   0.00513
  72        5D-2       -0.00571   0.00414  -0.00029   0.00107  -0.00815
  73 5   C  1S         -0.06581   0.03246   0.03758  -0.01936  -0.01963
  74        2S         -0.10535   0.05253   0.06097  -0.03172  -0.03189
  75        2PX        -0.00730  -0.01579  -0.02338  -0.02095   0.11145
  76        2PY        -0.01623  -0.05542   0.06008   0.03199   0.04098
  77        2PZ         0.00024   0.00026   0.00248   0.00189  -0.00697
  78        3S          0.27038  -0.13771  -0.16039   0.08463   0.08272
  79        3PX        -0.00836  -0.02253  -0.03347  -0.02895   0.15853
  80        3PY        -0.02246  -0.07595   0.08299   0.04497   0.05713
  81        3PZ         0.00021   0.00041   0.00350   0.00263  -0.00993
  82        4S          0.15029  -0.09051  -0.11078   0.05171   0.08853
  83        4PX        -0.00444  -0.00961  -0.01826  -0.01185   0.08968
  84        4PY        -0.00672  -0.02658   0.03261   0.02108   0.03354
  85        4PZ         0.00019   0.00025   0.00173   0.00111  -0.00560
  86        5D 0       -0.00807   0.00307   0.00370  -0.00315  -0.00005
  87        5D+1       -0.00069   0.00031   0.00031  -0.00083  -0.00020
  88        5D-1        0.00006  -0.00043   0.00019   0.00008   0.00003
  89        5D+2       -0.00314   0.00180   0.00082   0.00646   0.00261
  90        5D-2        0.00289   0.00485  -0.00448  -0.00146  -0.00100
  91 6   C  1S         -0.05062  -0.04451   0.01493   0.03293   0.02464
  92        2S         -0.08152  -0.07236   0.02444   0.05376   0.04061
  93        2PX         0.02611  -0.01599  -0.07451  -0.03272  -0.00471
  94        2PY         0.02235  -0.02408  -0.03291   0.06658  -0.04541
  95        2PZ        -0.00144   0.00072   0.00456   0.00322  -0.00039
  96        3S          0.20726   0.18623  -0.06287  -0.13982  -0.10713
  97        3PX         0.03727  -0.02169  -0.10441  -0.04547  -0.00495
  98        3PY         0.03289  -0.03474  -0.04713   0.09519  -0.06488
  99        3PZ        -0.00204   0.00095   0.00638   0.00451  -0.00069
 100        4S          0.12548   0.13554  -0.06791  -0.13483  -0.09661
 101        4PX         0.01150  -0.00953  -0.03791  -0.02094   0.00881
 102        4PY         0.01044  -0.01153  -0.01798   0.05463  -0.03033
 103        4PZ        -0.00062   0.00048   0.00229   0.00223  -0.00107
 104        5D 0       -0.00846  -0.00661   0.00241   0.00298   0.00419
 105        5D+1       -0.00059  -0.00096  -0.00011   0.00032   0.00007
 106        5D-1       -0.00012   0.00012   0.00012   0.00006  -0.00074
 107        5D+2       -0.00463   0.00264   0.00500   0.00005   0.00806
 108        5D-2        0.00609   0.00020  -0.00382  -0.00210   0.00744
 109 7   C  1S          0.01422   0.00134  -0.05091  -0.01302  -0.02969
 110        2S          0.02301   0.00254  -0.08299  -0.02124  -0.04829
 111        2PX         0.03913   0.07085   0.00126  -0.01270  -0.04366
 112        2PY        -0.02625  -0.02234  -0.02927   0.06610  -0.06218
 113        2PZ        -0.00305  -0.00517  -0.00055   0.00181   0.00193
 114        3S         -0.05842  -0.00781   0.21390   0.05460   0.12264
 115        3PX         0.05629   0.10052   0.00405  -0.01701  -0.06271
 116        3PY        -0.03923  -0.03603  -0.04280   0.09093  -0.09139
 117        3PZ        -0.00441  -0.00741  -0.00095   0.00245   0.00273
 118        4S         -0.04484  -0.00031   0.16312   0.03945   0.16717
 119        4PX         0.02235   0.03983   0.01284   0.00396  -0.03208
 120        4PY        -0.00848  -0.00371  -0.01508   0.03838  -0.05245
 121        4PZ        -0.00166  -0.00278  -0.00112   0.00027   0.00130
 122        5D 0        0.00294   0.00071  -0.00743  -0.00269  -0.00236
 123        5D+1       -0.00015  -0.00011  -0.00100   0.00037   0.00002
 124        5D-1       -0.00059  -0.00057   0.00014  -0.00021  -0.00008
 125        5D+2        0.00854   0.00448   0.00184  -0.00865  -0.00357
 126        5D-2        0.00573   0.00700   0.00039   0.00583   0.00272
 127 8   H  1S          0.04766   0.09110   0.04168   0.08500   0.05783
 128        2S          0.04867   0.11205   0.04701   0.10778   0.09178
 129        3S          0.01065   0.02556   0.02224   0.03739   0.01775
 130        4PX         0.00048   0.00485  -0.00474   0.00037   0.00819
 131        4PY        -0.01006  -0.01437  -0.00941  -0.01358  -0.00678
 132        4PZ        -0.00015  -0.00048   0.00021  -0.00019  -0.00065
 133 9   H  1S         -0.03664   0.05371  -0.01541  -0.06443   0.05685
 134        2S         -0.03736   0.06367  -0.01551  -0.08253   0.06761
 135        3S         -0.00125   0.01566  -0.00426  -0.02610   0.02819
 136        4PX        -0.00192   0.00238   0.00192  -0.00797  -0.00029
 137        4PY         0.00559  -0.00726   0.00414   0.00682  -0.00697
 138        4PZ         0.00021  -0.00026  -0.00007   0.00063  -0.00008
 139 10  H  1S          0.00889  -0.03308   0.06498  -0.05172   0.03151
 140        2S          0.00813  -0.03653   0.07690  -0.06210   0.04072
 141        3S          0.00040  -0.00799   0.01901  -0.01836   0.01617
 142        4PX         0.00135   0.00004  -0.00546   0.00537  -0.00036
 143        4PY        -0.00214   0.00513  -0.00737   0.00439  -0.00543
 144        4PZ        -0.00012   0.00007   0.00027  -0.00030  -0.00006
 145 11  H  1S          0.04965  -0.04146  -0.05230   0.00626   0.10915
 146        2S          0.05690  -0.05141  -0.06468   0.00943   0.14256
 147        3S          0.00596  -0.00950  -0.01339   0.00196   0.05113
 148        4PX        -0.00832   0.00673   0.00791  -0.00037  -0.01324
 149        4PY        -0.00081  -0.00237   0.00275   0.00144   0.00163
 150        4PZ         0.00055  -0.00049  -0.00050   0.00005   0.00093
 151 12  H  1S          0.03716   0.04950  -0.02059  -0.08693  -0.00025
 152        2S          0.03963   0.05811  -0.02203  -0.10500  -0.00052
 153        3S          0.00426   0.01368  -0.00648  -0.03229  -0.00040
 154        4PX        -0.00166  -0.00451  -0.00166   0.00585  -0.00189
 155        4PY         0.00579   0.00557  -0.00413  -0.00937   0.00015
 156        4PZ         0.00020   0.00039   0.00005  -0.00054   0.00013
 157 13  H  1S         -0.00976  -0.01218   0.06565  -0.02235   0.08962
 158        2S         -0.00793  -0.01364   0.07902  -0.03011   0.10840
 159        3S          0.00220  -0.00246   0.02376  -0.01150   0.03436
 160        4PX         0.00115   0.00217   0.00515  -0.00358   0.00532
 161        4PY        -0.00230  -0.00435   0.00754  -0.00314   0.00745
 162        4PZ        -0.00011  -0.00022  -0.00023   0.00019  -0.00025
                          16        17        18        19        20
                           O         O         O         O         O
     Eigenvalues --    -0.49704  -0.46065  -0.45554  -0.43774  -0.42152
   1 1   O  1S         -0.01925  -0.00014   0.00112   0.00637   0.02317
   2        2S         -0.03226  -0.00023   0.00198   0.01067   0.03890
   3        2PX        -0.11075   0.01481  -0.06202   0.02081   0.06946
   4        2PY        -0.11180  -0.00324   0.00473   0.03785   0.15456
   5        2PZ         0.00612   0.21800   0.00564  -0.00052  -0.00206
   6        3S          0.09751   0.00064  -0.00673  -0.03187  -0.11863
   7        3PX        -0.16009   0.02172  -0.09278   0.02972   0.09791
   8        3PY        -0.16299  -0.00471   0.00654   0.05295   0.22313
   9        3PZ         0.00882   0.31925   0.00838  -0.00074  -0.00279
  10        4S          0.11915   0.00134  -0.00859  -0.04614  -0.15652
  11        4PX        -0.15053   0.02102  -0.07831   0.03810   0.12711
  12        4PY        -0.13562  -0.00447   0.00635   0.04334   0.19799
  13        4PZ         0.00855   0.30939   0.00735  -0.00143  -0.00510
  14        5D 0        0.00556  -0.00137   0.00125  -0.00170  -0.00719
  15        5D+1        0.00052   0.01338   0.00044  -0.00017  -0.00042
  16        5D-1        0.00074   0.01064   0.00046   0.00010  -0.00002
  17        5D+2       -0.00014   0.00108  -0.00391  -0.00034  -0.00502
  18        5D-2       -0.01251   0.00057  -0.00555  -0.00065   0.00387
  19 2   C  1S          0.01689   0.00024  -0.03097  -0.00134  -0.00251
  20        2S          0.02781   0.00039  -0.05069  -0.00222  -0.00415
  21        2PX         0.05616   0.00822   0.08417  -0.01031  -0.04153
  22        2PY        -0.07148  -0.00103  -0.03396  -0.07068  -0.06229
  23        2PZ        -0.00489   0.12273  -0.00547  -0.00008   0.00248
  24        3S         -0.07597  -0.00108   0.14111   0.00575   0.00975
  25        3PX         0.09015   0.01271   0.12282  -0.01632  -0.06532
  26        3PY        -0.10002  -0.00167  -0.04848  -0.10842  -0.09421
  27        3PZ        -0.00764   0.18912  -0.00790  -0.00009   0.00395
  28        4S         -0.09481  -0.00129   0.16604   0.01214   0.03217
  29        4PX        -0.02443   0.00996   0.06600   0.02170   0.06134
  30        4PY        -0.10593  -0.00178  -0.04484  -0.01491  -0.00520
  31        4PZ         0.00017   0.14460  -0.00421  -0.00140  -0.00366
  32        5D 0        0.00399   0.00258   0.00166  -0.00047  -0.00194
  33        5D+1        0.00197  -0.02126   0.00031  -0.00053  -0.00062
  34        5D-1       -0.00086   0.00018   0.00002   0.00146   0.00100
  35        5D+2       -0.01873  -0.00152  -0.00337   0.00174   0.00216
  36        5D-2        0.01492   0.00033  -0.00010  -0.02180  -0.01414
  37 3   C  1S         -0.03000  -0.00013   0.00975   0.01493   0.00848
  38        2S         -0.04889  -0.00021   0.01616   0.02444   0.01371
  39        2PX         0.02567   0.00353   0.03033  -0.04853   0.09099
  40        2PY         0.06164  -0.00085  -0.06297   0.10436   0.02275
  41        2PZ        -0.00089   0.06013  -0.00255   0.00488  -0.00544
  42        3S          0.12295   0.00054  -0.04093  -0.06671  -0.03054
  43        3PX         0.03636   0.00526   0.04000  -0.06901   0.13638
  44        3PY         0.09111  -0.00125  -0.09102   0.14985   0.03383
  45        3PZ        -0.00122   0.08886  -0.00341   0.00697  -0.00817
  46        4S          0.24249   0.00066  -0.04301  -0.11735  -0.17401
  47        4PX         0.05116   0.00399   0.04808  -0.06543   0.01413
  48        4PY         0.01590  -0.00105  -0.04653   0.11384   0.05574
  49        4PZ        -0.00329   0.07201  -0.00344   0.00620   0.00040
  50        5D 0       -0.00321   0.00010   0.00160   0.00061   0.00158
  51        5D+1       -0.00045  -0.00318   0.00080   0.00053  -0.00027
  52        5D-1        0.00096  -0.00995  -0.00096  -0.00002  -0.00023
  53        5D+2       -0.00163  -0.00037  -0.00634  -0.00651   0.00669
  54        5D-2       -0.01278  -0.00071   0.01421   0.00097   0.00067
  55 4   C  1S          0.02533   0.00009  -0.00757   0.00959  -0.00909
  56        2S          0.04170   0.00016  -0.01246   0.01573  -0.01496
  57        2PX        -0.07750   0.00238   0.00199   0.04965  -0.08288
  58        2PY         0.00033  -0.00127   0.10607   0.09627   0.01804
  59        2PZ         0.00525   0.03084   0.00161  -0.00193   0.00616
  60        3S         -0.10772  -0.00041   0.03052  -0.04590   0.03912
  61        3PX        -0.10669   0.00369  -0.00046   0.07260  -0.12429
  62        3PY         0.00055  -0.00189   0.15432   0.13739   0.02579
  63        3PZ         0.00724   0.04793   0.00260  -0.00287   0.00923
  64        4S         -0.17817  -0.00021   0.04561  -0.00129   0.13034
  65        4PX        -0.03321   0.00166   0.02506   0.01517  -0.11006
  66        4PY         0.00694  -0.00104   0.08352   0.08696  -0.00006
  67        4PZ         0.00234   0.02484  -0.00030   0.00027   0.00775
  68        5D 0        0.00348   0.00043  -0.00074  -0.00032  -0.00065
  69        5D+1       -0.00024  -0.00413  -0.00027   0.00060  -0.00005
  70        5D-1        0.00029  -0.00238  -0.00112   0.00029  -0.00021
  71        5D+2        0.00802  -0.00031   0.00544  -0.00996  -0.00016
  72        5D-2       -0.00727  -0.00021   0.01531  -0.00216   0.00307
  73 5   C  1S         -0.01867  -0.00015   0.02277  -0.00032  -0.00342
  74        2S         -0.03044  -0.00025   0.03719  -0.00053  -0.00565
  75        2PX         0.04857   0.00145   0.08167  -0.01066  -0.03988
  76        2PY        -0.06995   0.00036  -0.03548  -0.06197  -0.08945
  77        2PZ        -0.00432   0.02313  -0.00590  -0.00013   0.00161
  78        3S          0.07902   0.00068  -0.10097   0.00219   0.01756
  79        3PX         0.06941   0.00229   0.11562  -0.01501  -0.05681
  80        3PY        -0.09832   0.00046  -0.04986  -0.09350  -0.12681
  81        3PZ        -0.00615   0.03619  -0.00833  -0.00027   0.00234
  82        4S          0.10587   0.00071  -0.11394  -0.01058  -0.01584
  83        4PX         0.02643   0.00189   0.07148  -0.00208  -0.01809
  84        4PY        -0.05466   0.00017  -0.02985  -0.02347  -0.07384
  85        4PZ        -0.00260   0.02769  -0.00509  -0.00013   0.00043
  86        5D 0       -0.00131   0.00042   0.00123   0.00002   0.00015
  87        5D+1       -0.00079  -0.00365   0.00076   0.00036   0.00021
  88        5D-1       -0.00026   0.00004   0.00006  -0.00123   0.00010
  89        5D+2        0.00975  -0.00015  -0.00933  -0.00139  -0.00336
  90        5D-2        0.00226   0.00003   0.00073   0.01841  -0.00066
  91 6   C  1S          0.01539   0.00011  -0.00716  -0.01193   0.00391
  92        2S          0.02521   0.00019  -0.01181  -0.01958   0.00641
  93        2PX         0.05681   0.00124   0.07011  -0.04714   0.10158
  94        2PY         0.04760  -0.00039  -0.07178   0.10281   0.05325
  95        2PZ        -0.00313   0.03087  -0.00564   0.00487  -0.00583
  96        3S         -0.06685  -0.00048   0.02784   0.05549  -0.01653
  97        3PX         0.08077   0.00201   0.09681  -0.06954   0.14878
  98        3PY         0.06758  -0.00060  -0.10505   0.14740   0.07869
  99        3PZ        -0.00445   0.04742  -0.00785   0.00712  -0.00851
 100        4S         -0.08313  -0.00043   0.05809   0.05561  -0.00143
 101        4PX         0.04045   0.00108   0.07032  -0.03024   0.08554
 102        4PY         0.03207  -0.00031  -0.05311   0.10267   0.05518
 103        4PZ        -0.00225   0.02808  -0.00536   0.00371  -0.00467
 104        5D 0        0.00110   0.00058  -0.00114  -0.00004   0.00024
 105        5D+1        0.00008  -0.00428  -0.00063  -0.00055   0.00073
 106        5D-1       -0.00063   0.00228   0.00091   0.00000  -0.00028
 107        5D+2        0.00263  -0.00023   0.00381   0.00747  -0.00918
 108        5D-2        0.00834   0.00031  -0.01349  -0.00150   0.00646
 109 7   C  1S         -0.00726  -0.00014   0.01106  -0.01166  -0.00248
 110        2S         -0.01202  -0.00022   0.01827  -0.01909  -0.00402
 111        2PX        -0.07713   0.00460  -0.03598   0.04438  -0.11125
 112        2PY         0.01649  -0.00174   0.09292   0.10039  -0.01596
 113        2PZ         0.00549   0.05922   0.00423  -0.00133   0.00767
 114        3S          0.03113   0.00058  -0.04549   0.05335   0.00792
 115        3PX        -0.10805   0.00694  -0.05426   0.06378  -0.16374
 116        3PY         0.02519  -0.00259   0.13483   0.14387  -0.02412
 117        3PZ         0.00773   0.08966   0.00630  -0.00191   0.01130
 118        4S          0.02463   0.00044  -0.08667   0.05856   0.03238
 119        4PX        -0.04297   0.00469  -0.00912   0.03034  -0.11126
 120        4PY         0.02246  -0.00171   0.06101   0.08749  -0.05360
 121        4PZ         0.00324   0.06493   0.00195  -0.00055   0.00719
 122        5D 0       -0.00150   0.00063   0.00174  -0.00026  -0.00047
 123        5D+1        0.00060  -0.00328   0.00058  -0.00056   0.00006
 124        5D-1       -0.00009   0.00996   0.00126  -0.00019  -0.00015
 125        5D+2       -0.01050  -0.00004  -0.00938   0.00796  -0.00095
 126        5D-2        0.00414   0.00086  -0.01627   0.00145   0.00345
 127 8   H  1S         -0.02101  -0.00044   0.02350   0.01909   0.07114
 128        2S         -0.04113  -0.00069   0.02719   0.03976   0.12522
 129        3S          0.01752  -0.00013   0.02268   0.00850   0.01947
 130        4PX        -0.01541   0.00142  -0.00503   0.00470   0.01426
 131        4PY        -0.00099  -0.00018  -0.00517  -0.00147  -0.00680
 132        4PZ         0.00103   0.02174   0.00042  -0.00028  -0.00095
 133 9   H  1S          0.06725   0.00038  -0.07276   0.08385  -0.03316
 134        2S          0.09269   0.00043  -0.09952   0.11636  -0.05547
 135        3S          0.03792   0.00020  -0.05303   0.06159  -0.02410
 136        4PX         0.00551   0.00032  -0.00429   0.00419   0.00126
 137        4PY        -0.00309  -0.00009   0.00543  -0.00741   0.00409
 138        4PZ        -0.00042   0.00464   0.00040  -0.00038   0.00000
 139 10  H  1S         -0.05975  -0.00061   0.08952   0.08283  -0.01006
 140        2S         -0.07694  -0.00083   0.12048   0.11684  -0.01289
 141        3S         -0.03655  -0.00038   0.06113   0.06321  -0.00569
 142        4PX        -0.00046   0.00021  -0.00662  -0.00347  -0.00230
 143        4PY         0.00625   0.00000  -0.00548  -0.00717   0.00256
 144        4PZ         0.00012   0.00232   0.00039   0.00014   0.00021
 145 11  H  1S          0.06164   0.00011   0.04126  -0.00975  -0.03325
 146        2S          0.08458   0.00010   0.06103  -0.01518  -0.05096
 147        3S          0.03743   0.00005   0.02719  -0.00872  -0.03024
 148        4PX        -0.00600   0.00009  -0.00609   0.00102   0.00316
 149        4PY        -0.00338   0.00002  -0.00181  -0.00391  -0.00428
 150        4PZ         0.00036   0.00123   0.00040  -0.00012  -0.00027
 151 12  H  1S         -0.02810  -0.00057   0.09224  -0.08370  -0.00035
 152        2S         -0.03481  -0.00075   0.12471  -0.11779  -0.00134
 153        3S         -0.01798  -0.00036   0.06406  -0.06069   0.00459
 154        4PX         0.00395   0.00015  -0.00369   0.00429   0.00485
 155        4PY         0.00017  -0.00009   0.00739  -0.00703   0.00265
 156        4PZ        -0.00027   0.00215   0.00038  -0.00039  -0.00027
 157 13  H  1S          0.03021   0.00053  -0.06765  -0.08182   0.06379
 158        2S          0.04157   0.00073  -0.09161  -0.11600   0.08081
 159        3S          0.03702   0.00034  -0.04778  -0.07031   0.01372
 160        4PX        -0.00303   0.00040  -0.00689  -0.00436   0.00069
 161        4PY         0.00430  -0.00006  -0.00273  -0.00702   0.00569
 162        4PZ         0.00027   0.00496   0.00046   0.00020   0.00007
                          21        22        23        24        25
                           O         O         O         O         O
     Eigenvalues --    -0.37388  -0.37376  -0.34893  -0.27482  -0.24959
   1 1   O  1S         -0.00299  -0.00073  -0.00777   0.00000  -0.00003
   2        2S         -0.00508  -0.00124  -0.01306   0.00000  -0.00006
   3        2PX         0.06587   0.02598  -0.02453  -0.00023   0.00902
   4        2PY         0.03124   0.00585  -0.05616   0.00003  -0.00164
   5        2PZ        -0.03796   0.13831   0.00055  -0.00314   0.13151
   6        3S          0.01673   0.00409   0.03927   0.00002   0.00021
   7        3PX         0.09555   0.03755  -0.03364  -0.00033   0.01278
   8        3PY         0.04631   0.00875  -0.07810   0.00003  -0.00232
   9        3PZ        -0.05462   0.19885   0.00071  -0.00452   0.18617
  10        4S          0.02188   0.00541   0.05869  -0.00001   0.00004
  11        4PX         0.09203   0.03832  -0.05521  -0.00049   0.01619
  12        4PY         0.04511   0.00819  -0.07868   0.00020  -0.00285
  13        4PZ        -0.05979   0.22114   0.00208  -0.00573   0.23849
  14        5D 0       -0.00142  -0.00066   0.00261   0.00002   0.00045
  15        5D+1       -0.00110   0.00357   0.00026   0.00003  -0.00273
  16        5D-1       -0.00190   0.00646  -0.00032   0.00091   0.00583
  17        5D+2        0.00138   0.00067   0.00127   0.00001  -0.00012
  18        5D-2        0.00468   0.00157   0.00343   0.00006   0.00045
  19 2   C  1S          0.01054   0.00254   0.00105   0.00000  -0.00001
  20        2S          0.01757   0.00423   0.00167   0.00001  -0.00001
  21        2PX        -0.04052  -0.01109   0.00772   0.00023  -0.00819
  22        2PY         0.00632   0.00192   0.12818  -0.00010   0.00171
  23        2PZ         0.00735  -0.01801   0.00124   0.00339  -0.11980
  24        3S         -0.05153  -0.01238  -0.00352  -0.00001   0.00004
  25        3PX        -0.05881  -0.01666   0.01238   0.00037  -0.01354
  26        3PY         0.00798   0.00260   0.18461  -0.00013   0.00284
  27        3PZ         0.01254  -0.03394   0.00171   0.00522  -0.19804
  28        4S         -0.02350  -0.00591  -0.02602  -0.00014  -0.00029
  29        4PX        -0.01926  -0.00547  -0.05336   0.00021  -0.01119
  30        4PY         0.02890   0.00698   0.12638  -0.00071   0.00164
  31        4PZ         0.00420  -0.01008   0.00533   0.00627  -0.15354
  32        5D 0       -0.00236   0.00242   0.00036   0.00072   0.00247
  33        5D+1        0.00362  -0.02429   0.00052  -0.00004  -0.02080
  34        5D-1       -0.00009  -0.00065  -0.00093   0.02783  -0.00022
  35        5D+2        0.02794   0.00499  -0.00317   0.00040  -0.00139
  36        5D-2       -0.00177  -0.00015   0.01444   0.00188   0.00024
  37 3   C  1S         -0.00842  -0.00199  -0.00446  -0.00001   0.00004
  38        2S         -0.01406  -0.00333  -0.00741  -0.00002   0.00006
  39        2PX         0.11367   0.02250  -0.02940   0.00893  -0.00638
  40        2PY        -0.00992  -0.00146  -0.09850  -0.00182   0.00141
  41        2PZ         0.00892  -0.07122   0.00067   0.13226  -0.09535
  42        3S          0.04198   0.00995   0.02117   0.00004  -0.00019
  43        3PX         0.16098   0.03138  -0.04351   0.01316  -0.00945
  44        3PY        -0.01650  -0.00256  -0.14355  -0.00271   0.00209
  45        3PZ         0.01429  -0.10792   0.00103   0.19513  -0.14130
  46        4S          0.00036   0.00003   0.06409   0.00048   0.00043
  47        4PX         0.12221   0.02288   0.03024   0.01503  -0.01338
  48        4PY        -0.00285   0.00037  -0.12833  -0.00337   0.00241
  49        4PZ         0.01307  -0.09046  -0.00380   0.22547  -0.19481
  50        5D 0       -0.00006   0.00125  -0.00051  -0.00114  -0.00122
  51        5D+1        0.00174  -0.00936   0.00012   0.00936   0.01293
  52        5D-1       -0.00156   0.00406  -0.00160  -0.00090   0.01237
  53        5D+2        0.00881   0.00151   0.00262   0.00062   0.00106
  54        5D-2        0.00622   0.00198   0.02349  -0.00020   0.00065
  55 4   C  1S          0.00336   0.00080   0.00561   0.00001  -0.00001
  56        2S          0.00548   0.00130   0.00937   0.00002  -0.00002
  57        2PX        -0.11633  -0.03557   0.00792   0.00852   0.00448
  58        2PY         0.02684   0.00828   0.10328  -0.00179  -0.00097
  59        2PZ         0.03344  -0.10203   0.00112   0.12518   0.06686
  60        3S         -0.01283  -0.00304  -0.02769  -0.00008   0.00005
  61        3PX        -0.16777  -0.05160   0.01445   0.01261   0.00664
  62        3PY         0.03738   0.01168   0.14982  -0.00264  -0.00143
  63        3PZ         0.04917  -0.15112   0.00142   0.18502   0.09909
  64        4S         -0.03269  -0.00770  -0.06376  -0.00001   0.00019
  65        4PX        -0.10730  -0.03640   0.04438   0.01392   0.00886
  66        4PY         0.01403   0.00590   0.12595  -0.00287  -0.00183
  67        4PZ         0.04220  -0.14183  -0.00094   0.20646   0.13270
  68        5D 0        0.00040   0.00018   0.00026   0.00138  -0.00232
  69        5D+1       -0.00174   0.00130   0.00095  -0.01157   0.01736
  70        5D-1       -0.00274   0.01066  -0.00148   0.00037  -0.01052
  71        5D+2        0.02004   0.00510  -0.00857  -0.00079   0.00103
  72        5D-2       -0.00210   0.00028   0.02336   0.00018  -0.00097
  73 5   C  1S          0.00504   0.00122  -0.00056   0.00000  -0.00001
  74        2S          0.00829   0.00201  -0.00089   0.00000  -0.00001
  75        2PX         0.12333   0.02186  -0.00661  -0.00033   0.00887
  76        2PY        -0.01622  -0.00254  -0.11623   0.00007  -0.00194
  77        2PZ         0.01768  -0.11072  -0.00108  -0.00468   0.13107
  78        3S         -0.02617  -0.00633   0.00177   0.00001   0.00005
  79        3PX         0.17540   0.03018  -0.00957  -0.00049   0.01355
  80        3PY        -0.02285  -0.00335  -0.16035   0.00010  -0.00296
  81        3PZ         0.02816  -0.16991  -0.00143  -0.00708   0.19997
  82        4S         -0.00004   0.00005   0.02432   0.00002  -0.00005
  83        4PX         0.13189   0.02169  -0.02219  -0.00055   0.01485
  84        4PY        -0.01481  -0.00163  -0.12496   0.00026  -0.00309
  85        4PZ         0.02466  -0.14211  -0.00010  -0.00831   0.21866
  86        5D 0        0.00037  -0.00126  -0.00022   0.00065   0.00054
[...]
  20. CR (   1) C   4                / 53. RY*(   2) C   3                    0.32   11.79    0.077
  20. CR (   1) C   4                / 55. RY*(   4) C   3                    0.34   11.34    0.079
  20. CR (   1) C   4                / 79. RY*(   2) C   5                    0.73   11.81    0.117
  20. CR (   1) C   4                /128. RY*(   2) H  10                    0.30   12.65    0.077
  20. CR (   1) C   4                /149. BD*(   1) C   2 - C   3            0.49   11.01    0.093
  20. CR (   1) C   4                /153. BD*(   1) C   3 - H   9            0.29   10.87    0.071
  20. CR (   1) C   4                /157. BD*(   1) C   5 - C   6            0.47   11.02    0.091
  20. CR (   1) C   4                /158. BD*(   1) C   5 - H  11            0.26   10.88    0.068
  21. CR (   1) C   5                / 66. RY*(   2) C   4                    0.69   11.95    0.115
  21. CR (   1) C   5                / 92. RY*(   2) C   6                    0.72   11.97    0.117
  21. CR (   1) C   5                /134. RY*(   3) H  11                    0.30   12.42    0.077
  21. CR (   1) C   5                /152. BD*(   1) C   3 - C   4            0.47   11.06    0.091
  21. CR (   1) C   5                /156. BD*(   1) C   4 - H  10            0.26   10.91    0.067
  21. CR (   1) C   5                /159. BD*(   1) C   6 - C   7            0.46   11.06    0.091
  21. CR (   1) C   5                /161. BD*(   1) C   6 - H  12            0.25   10.91    0.067
  22. CR (   1) C   6                / 79. RY*(   2) C   5                    0.73   11.81    0.117
  22. CR (   1) C   6                /104. RY*(   1) C   7                    0.28   11.81    0.072
  22. CR (   1) C   6                /105. RY*(   2) C   7                    0.38   11.81    0.085
  22. CR (   1) C   6                /107. RY*(   4) C   7                    0.32   11.33    0.076
  22. CR (   1) C   6                /138. RY*(   2) H  12                    0.30   12.65    0.078
  22. CR (   1) C   6                /151. BD*(   1) C   2 - C   7            0.48   11.01    0.092
  22. CR (   1) C   6                /154. BD*(   1) C   4 - C   5            0.46   11.03    0.090
  22. CR (   1) C   6                /158. BD*(   1) C   5 - H  11            0.26   10.88    0.067
  22. CR (   1) C   6                /162. BD*(   1) C   7 - H  13            0.30   10.88    0.072
  23. CR (   1) C   7                / 40. RY*(   2) C   2                    1.07   12.00    0.143
  23. CR (   1) C   7                / 92. RY*(   2) C   6                    0.66   11.94    0.112
  23. CR (   1) C   7                /147. BD*(   1) O   1 - C   2            0.34   10.78    0.077
  23. CR (   1) C   7                /149. BD*(   1) C   2 - C   3            0.59   11.00    0.103
  23. CR (   1) C   7                /157. BD*(   1) C   5 - C   6            0.51   11.02    0.095
  24. LP (   1) O   1                / 39. RY*(   1) C   2                    1.72    1.90    0.072
  24. LP (   1) O   1                / 42. RY*(   4) C   2                    0.45    2.56    0.043
  24. LP (   1) O   1                /117. RY*(   1) H   8                    0.44    2.11    0.039
  24. LP (   1) O   1                /119. RY*(   3) H   8                    0.45    1.67    0.035
  24. LP (   1) O   1                /149. BD*(   1) C   2 - C   3            3.32    1.35    0.085
  25. LP (   2) O   1                / 41. RY*(   3) C   2                    1.28    2.02    0.066
  25. LP (   2) O   1                /118. RY*(   2) H   8                    1.00    1.95    0.057
  25. LP (   2) O   1                /150. BD*(   2) C   2 - C   3           14.38    0.49    0.114
 150. BD*(   2) C   2 - C   3        / 26. RY*(   1) O   1                    0.32    0.91    0.049
 150. BD*(   2) C   2 - C   3        / 45. RY*(   7) C   2                    0.77    0.55    0.059
 150. BD*(   2) C   2 - C   3        / 54. RY*(   3) C   3                    2.16    0.55    0.100
 150. BD*(   2) C   2 - C   3        /106. RY*(   3) C   7                    0.40    0.51    0.041
 150. BD*(   2) C   2 - C   3        /160. BD*(   2) C   6 - C   7           89.43    0.02    0.094
 155. BD*(   2) C   4 - C   5        / 67. RY*(   3) C   4                    1.50    0.85    0.106
 155. BD*(   2) C   4 - C   5        / 80. RY*(   3) C   5                    1.56    0.53    0.085
 155. BD*(   2) C   4 - C   5        / 93. RY*(   3) C   6                    0.29    0.87    0.047
 155. BD*(   2) C   4 - C   5        /160. BD*(   2) C   6 - C   7          130.73    0.01    0.094
 160. BD*(   2) C   6 - C   7        / 93. RY*(   3) C   6                    0.30    0.86    0.051
 160. BD*(   2) C   6 - C   7        / 94. RY*(   4) C   6                    0.58    1.36    0.090
 160. BD*(   2) C   6 - C   7        /106. RY*(   3) C   7                    1.57    0.48    0.088


 Natural Bond Orbitals (Summary):

                                                            Principal Delocalizations
           NBO                        Occupancy    Energy   (geminal,vicinal,remote)
 ====================================================================================
 Molecular unit  1  (C6H6O)
     1. BD (   1) O   1 - C   2          0.99706    -0.99247  159(v),152(v),149(g),151(g)
                                                    39(g),104(v)
     2. BD (   1) O   1 - H   8          0.99456    -0.79438  151(v),39(v)
     3. BD (   1) C   2 - C   3          0.98781    -0.72352  151(g),152(g),156(v),162(v)
                                                    153(g),104(v),66(v),65(v)
                                                    122(v),148(v),105(v)
     4. BD (   2) C   2 - C   3          0.83236    -0.24431  155(v),160(v),106(v),26(v)
                                                    68(v),150(g)
     5. BD (   1) C   2 - C   7          0.98537    -0.71480  149(g),159(g),153(v),161(v)
                                                    148(v),162(g),92(v),52(v)
                                                    91(v),142(v),27(v),147(g)
     6. BD (   1) C   3 - C   4          0.98579    -0.70602  147(v),149(g),154(g),158(v)
                                                    153(g),40(v),156(g),79(v)
                                                    78(v),122(v),127(v),42(v)
     7. BD (   1) C   3 - H   9          0.98854    -0.52940  151(v),154(v),65(v),39(v)
                                                    152(g),147(v),149(g),156(v)
     8. BD (   1) C   4 - C   5          0.98817    -0.70924  152(g),157(g),161(v),153(v)
                                                    53(v),156(g),158(g),92(v)
                                                    91(v),127(v)
     9. BD (   2) C   4 - C   5          0.84854    -0.23673  160(v),150(v),93(v),54(v)
    10. BD (   1) C   4 - H  10          0.98940    -0.52190  149(v),157(v),78(v),52(v)
                                                    154(g),152(g),153(v),158(v)
    11. BD (   1) C   5 - C   6          0.98819    -0.70751  159(g),154(g),156(v),162(v)
                                                    105(v),161(g),158(g),66(v)
                                                    65(v),137(v)
    12. BD (   1) C   5 - H  11          0.98976    -0.54112  152(v),159(v),65(v),91(v)
                                                    154(g),157(g),156(v),161(v)
    13. BD (   1) C   6 - C   7          0.98621    -0.70649  157(g),151(g),147(v),158(v)
                                                    162(g),39(v),161(g),79(v)
                                                    42(v),78(v),142(v),137(v)
    14. BD (   2) C   6 - C   7          0.83448    -0.22475  150(v),155(v),80(v),45(v)
    15. BD (   1) C   6 - H  12          0.98947    -0.52252  151(v),154(v),78(v),104(v)
                                                    159(g),157(g),158(v),162(v)
    16. BD (   1) C   7 - H  13          0.98861    -0.52325  149(v),157(v),91(v),159(g)
                                                    40(v),147(v),151(g),161(v)
    17. CR (   1) O   1                  0.99988   -19.39959  39(v),149(v),42(v),120(v)
    18. CR (   1) C   2                  0.99939   -10.42203  53(v),105(v),147(g),151(g)
                                                    149(g),159(v),152(v),153(v)
    19. CR (   1) C   3                  0.99954   -10.31708  39(v),66(v),151(v),154(v)
                                                    147(v),42(v)
    20. CR (   1) C   4                  0.99960   -10.31713  79(v),149(v),157(v),55(v)
                                                    53(v),128(v),153(v),52(v)
                                                    158(v)
    21. CR (   1) C   5                  0.99959   -10.34026  92(v),66(v),152(v),159(v)
                                                    134(v),156(v),161(v)
    22. CR (   1) C   6                  0.99959   -10.31828  79(v),151(v),154(v),105(v)
                                                    107(v),138(v),162(v),104(v)
                                                    158(v)
    23. CR (   1) C   7                  0.99954   -10.31183  40(v),92(v),149(v),157(v)
                                                    147(v)
    24. LP (   1) O   1                  0.99102    -0.66158  149(v),39(v),119(v),42(v)
                                                    117(v)
    25. LP (   2) O   1                  0.95133    -0.37413  150(v),41(v),118(v)
    26. RY*(   1) O   1                  0.00095     1.02686   
    27. RY*(   2) O   1                  0.00065     1.49726   
    28. RY*(   3) O   1                  0.00011     1.72026   
    29. RY*(   4) O   1                  0.00002     1.95443   
    30. RY*(   5) O   1                  0.00000    49.83251   
    31. RY*(   6) O   1                  0.00000     5.32884   
    32. RY*(   7) O   1                  0.00000     5.05817   
    33. RY*(   8) O   1                  0.00000     4.93245   
    34. RY*(   9) O   1                  0.00000     3.00780   
    35. RY*(  10) O   1                  0.00000     2.97295   
    36. RY*(  11) O   1                  0.00000     3.03675   
    37. RY*(  12) O   1                  0.00001     3.13020   
    38. RY*(  13) O   1                  0.00000     3.39016   
    39. RY*(   1) C   2                  0.00361     1.23929   
    40. RY*(   2) C   2                  0.00156     1.68957   
    41. RY*(   3) C   2                  0.00128     1.64474   
    42. RY*(   4) C   2                  0.00083     1.90323   
    43. RY*(   5) C   2                  0.00036     2.19138   
    44. RY*(   6) C   2                  0.00036     1.73773   
    45. RY*(   7) C   2                  0.00019     0.66522   
    46. RY*(   8) C   2                  0.00010     4.06623   
    47. RY*(   9) C   2                  0.00001    21.02548   
    48. RY*(  10) C   2                  0.00002     2.41803   
    49. RY*(  11) C   2                  0.00001     2.65015   
    50. RY*(  12) C   2                  0.00002     2.17788   
    51. RY*(  13) C   2                  0.00000     2.73654   
    52. RY*(   1) C   3                  0.00239     1.46867   
    53. RY*(   2) C   3                  0.00105     1.46886   
    54. RY*(   3) C   3                  0.00048     0.66695   
    55. RY*(   4) C   3                  0.00033     1.02778   
    56. RY*(   5) C   3                  0.00020     1.76404   
    57. RY*(   6) C   3                  0.00010     3.40110   
    58. RY*(   7) C   3                  0.00004     4.60747   
    59. RY*(   8) C   3                  0.00002     3.85527   
    60. RY*(   9) C   3                  0.00002     1.81330   
    61. RY*(  10) C   3                  0.00001     2.93609   
    62. RY*(  11) C   3                  0.00000    19.39383   
    63. RY*(  12) C   3                  0.00000     2.71538   
    64. RY*(  13) C   3                  0.00001     2.16675   
    65. RY*(   1) C   4                  0.00278     1.42175   
    66. RY*(   2) C   4                  0.00094     1.61262   
    67. RY*(   3) C   4                  0.00048     0.96863   
    68. RY*(   4) C   4                  0.00022     1.50661   
    69. RY*(   5) C   4                  0.00016     0.93413   
    70. RY*(   6) C   4                  0.00004     3.65937   
    71. RY*(   7) C   4                  0.00002     3.89098   
    72. RY*(   8) C   4                  0.00002     2.76447   
    73. RY*(   9) C   4                  0.00002     5.54024   
    74. RY*(  10) C   4                  0.00000    17.05135   
    75. RY*(  11) C   4                  0.00000     1.65305   
    76. RY*(  12) C   4                  0.00000     2.82171   
    77. RY*(  13) C   4                  0.00000     3.31025   
    78. RY*(   1) C   5                  0.00284     1.27535   
    79. RY*(   2) C   5                  0.00100     1.49163   
    80. RY*(   3) C   5                  0.00053     0.64925   
    81. RY*(   4) C   5                  0.00025     1.76963   
    82. RY*(   5) C   5                  0.00013     0.94054   
    83. RY*(   6) C   5                  0.00005     2.51287   
    84. RY*(   7) C   5                  0.00004     6.45729   
    85. RY*(   8) C   5                  0.00002     2.76479   
    86. RY*(   9) C   5                  0.00001     3.25918   
    87. RY*(  10) C   5                  0.00000     1.66649   
    88. RY*(  11) C   5                  0.00000     2.80178   
    89. RY*(  12) C   5                  0.00000    19.09391   
    90. RY*(  13) C   5                  0.00000     2.44192   
    91. RY*(   1) C   6                  0.00273     1.42934   
    92. RY*(   2) C   6                  0.00091     1.62732   
    93. RY*(   3) C   6                  0.00045     0.99111   
    94. RY*(   4) C   6                  0.00022     1.49298   
    95. RY*(   5) C   6                  0.00014     0.95818   
    96. RY*(   6) C   6                  0.00005     3.66129   
    97. RY*(   7) C   6                  0.00002     3.45854   
    98. RY*(   8) C   6                  0.00002     2.64877   
    99. RY*(   9) C   6                  0.00002     5.62398   
   100. RY*(  10) C   6                  0.00000    17.90674   
   101. RY*(  11) C   6                  0.00000     1.65317   
   102. RY*(  12) C   6                  0.00000     2.82168   
   103. RY*(  13) C   6                  0.00000     2.86287   
   104. RY*(   1) C   7                  0.00260     1.49399   
   105. RY*(   2) C   7                  0.00107     1.49424   
   106. RY*(   3) C   7                  0.00054     0.61967   
   107. RY*(   4) C   7                  0.00025     1.01108   
   108. RY*(   5) C   7                  0.00019     1.78926   
   109. RY*(   6) C   7                  0.00007     3.37075   
   110. RY*(   7) C   7                  0.00004     3.20952   
   111. RY*(   8) C   7                  0.00003     1.71752   
   112. RY*(   9) C   7                  0.00001     2.64886   
   113. RY*(  10) C   7                  0.00002     2.77566   
   114. RY*(  11) C   7                  0.00000     2.83406   
   115. RY*(  12) C   7                  0.00000    22.10269   
   116. RY*(  13) C   7                  0.00001     2.24661   
   117. RY*(   1) H   8                  0.00074     1.44698   
   118. RY*(   2) H   8                  0.00072     1.57676   
   119. RY*(   3) H   8                  0.00024     1.00547   
   120. RY*(   4) H   8                  0.00017     2.08212   
   121. RY*(   5) H   8                  0.00001     2.64895   
   122. RY*(   1) H   9                  0.00145     0.43160   
   123. RY*(   2) H   9                  0.00010     2.37596   
   124. RY*(   3) H   9                  0.00006     1.67969   
   125. RY*(   4) H   9                  0.00003     2.10469   
   126. RY*(   5) H   9                  0.00002     2.68197   
   127. RY*(   1) H  10                  0.00096     0.48154   
   128. RY*(   2) H  10                  0.00010     2.33399   
   129. RY*(   3) H  10                  0.00004     2.06965   
   130. RY*(   4) H  10                  0.00005     1.68121   
   131. RY*(   5) H  10                  0.00001     2.69431   
   132. RY*(   1) H  11                  0.00056     0.56093   
   133. RY*(   2) H  11                  0.00008     1.66991   
   134. RY*(   3) H  11                  0.00006     2.07511   
   135. RY*(   4) H  11                  0.00004     2.04821   
   136. RY*(   5) H  11                  0.00002     2.69080   
   137. RY*(   1) H  12                  0.00093     0.48209   
   138. RY*(   2) H  12                  0.00010     2.33364   
   139. RY*(   3) H  12                  0.00005     1.67892   
   140. RY*(   4) H  12                  0.00004     2.07113   
   141. RY*(   5) H  12                  0.00001     2.69258   
   142. RY*(   1) H  13                  0.00137     0.43505   
   143. RY*(   2) H  13                  0.00010     2.39136   
   144. RY*(   3) H  13                  0.00004     2.07325   
   145. RY*(   4) H  13                  0.00005     1.68726   
   146. RY*(   5) H  13                  0.00002     2.70048   
   147. BD*(   1) O   1 - C   2          0.01312     0.46840   
   148. BD*(   1) O   1 - H   8          0.00413     0.50795   
   149. BD*(   1) C   2 - C   3          0.01446     0.68869   
   150. BD*(   2) C   2 - C   3          0.19148     0.11318  155(v),160(v),54(g),45(g)
                                                    106(v),26(v)
   151. BD*(   1) C   2 - C   7          0.01352     0.68899   
   152. BD*(   1) C   3 - C   4          0.00864     0.71482   
   153. BD*(   1) C   3 - H   9          0.00755     0.55365   
   154. BD*(   1) C   4 - C   5          0.00921     0.70960   
   155. BD*(   2) C   4 - C   5          0.17930     0.12060  150(v),160(v),80(g),67(g)
                                                    93(v)
   156. BD*(   1) C   4 - H  10          0.00770     0.56867   
   157. BD*(   1) C   5 - C   6          0.00932     0.70608   
   158. BD*(   1) C   5 - H  11          0.00771     0.56602   
   159. BD*(   1) C   6 - C   7          0.00810     0.72113   
   160. BD*(   2) C   6 - C   7          0.15511     0.13477  155(v),150(v),106(g),94(g)
                                                    93(g)
   161. BD*(   1) C   6 - H  12          0.00772     0.56896   
   162. BD*(   1) C   7 - H  13          0.00727     0.56043   
       -------------------------------
              Total Lewis   24.31380  ( 97.2552%)
        Valence non-Lewis    0.64434  (  2.5774%)
        Rydberg non-Lewis    0.04186  (  0.1674%)
       -------------------------------
            Total unit  1   25.00000  (100.0000%)
           Charge unit  1    0.00000

 Test job not archived.
 1\1\GINC-LEGACY-N0\SP\UM062X\6-311G(d,p)\C6H6O1(1-,2)\TWS35\14-Aug-202
 0\0\\#m062x/6-311g(d,p) charge pop = nbo nosymm scf=(maxcycle=999) gfi
 nput iop(6/7=3) scrf=(cpcm,solvent=water)\\Oc1ccccc1\\-1,2\O,0,1.06300
 8,0.032112,0.147809\C,0,2.418329,0.110307,0.055526\C,0,3.099219,1.3262
 41,0.026994\C,0,4.487454,1.335604,-0.067123\C,0,5.201612,0.143775,-0.1
 32811\C,0,4.511633,-1.066409,-0.104275\C,0,3.12623,-1.089545,-0.010458
 \H,0,0.689062,0.918604,0.183229\H,0,2.543845,2.257258,0.077353\H,0,5.0
 10249,2.284922,-0.089008\H,0,6.281904,0.156668,-0.206001\H,0,5.055326,
 -2.002869,-0.155491\H,0,2.575888,-2.022598,0.012537\\Version=EM64L-G09
 RevD.01\HF=-307.4451581\S2=0.758395\S2-1=0.\S2A=0.750037\RMSD=1.048e-0
 9\Dipole=-0.8292328,0.6957993,0.0635493\Quadrupole=-33.4763548,17.8245
 125,15.6518423,-1.0011901,0.3583647,0.2828707\PG=C01 [X(C6H6O1)]\\@


 A MATHEMATICIAN IS A MACHINE FOR TURNING COFFEE INTO THEOREMS.
     -- QUOTED BY PAUL ERDOS
 Job cpu time:       0 days  0 hours  2 minutes 30.5 seconds.
 File lengths (MBytes):  RWF=     30 Int=      0 D2E=      0 Chk=      3 Scr=      1
 Normal termination of Gaussian 09 at Fri Aug 14 20:59:31 2020.
